/*--------------------------------*- C++ -*----------------------------------*\
| =========                 |                                                 |
| \\      /  F ield         | OpenFOAM: The Open Source CFD Toolbox           |
|  \\    /   O peration     | Version:  1.4.2                                 |
|   \\  /    A nd           | Web:      http://www.openfoam.org               |
|    \\/     M anipulation  |                                                 |
\*---------------------------------------------------------------------------*/
FoamFile
{
    version     2.0;
    format      ascii;
    class       volScalarField;
    object      epsilon;
    location    "700";
}
// * * * * * * * * * * * * * * * * * * * * * * * * * * * * * * * * * * * * * //

dimensions      [0 2 -3 0 0 0 0];

internalField   nonuniform List<scalar> 
12225
(
443.026
353.452
290.586
245.345
212.188
187.594
169.245
155.572
145.485
138.21
133.183
129.986
128.301
127.881
128.53
130.083
132.409
135.671
60.1657
73.6156
79.5681
83.6951
87.7142
92.3539
97.9686
104.74
112.766
122.099
132.759
144.737
157.997
172.477
188.078
204.664
221.988
240.112
26.2958
33.7101
37.845
40.6833
42.9299
44.9526
46.9639
49.0916
51.4155
53.9863
56.836
59.9826
63.4321
67.1785
71.201
75.4556
79.852
84.2254
18.7355
22.7235
25.4806
27.3758
28.8178
30.0126
31.0724
32.0707
33.0568
34.0634
35.1121
36.2164
37.3836
38.6154
39.9079
41.2505
42.6228
43.9808
16.1687
18.1634
19.9326
21.292
22.3446
23.1852
23.8877
24.5055
25.0724
25.6103
26.1342
26.6543
27.1773
27.707
28.2446
28.7889
29.3358
29.8664
15.2354
16.0864
17.0484
17.9368
18.6891
19.3116
19.8309
20.2729
20.659
21.0059
21.3259
21.6277
21.9172
22.1984
22.4739
22.7446
23.0096
23.2587
14.8942
15.17
15.5864
16.0521
16.5062
16.9217
17.2896
17.61
17.8892
18.1348
18.3542
18.5533
18.7368
18.9085
19.0708
19.2255
19.3724
19.5053
14.7876
14.838
14.9915
15.2092
15.4537
15.7009
15.9368
16.1542
16.351
16.5276
16.6861
16.8291
16.959
17.0782
17.1887
17.2919
17.3884
17.4747
14.7441
14.6884
14.7003
14.7662
14.8675
14.9882
15.1163
15.2439
15.3661
15.4805
15.586
15.6827
15.7711
15.8522
15.9269
15.9959
16.06
16.1176
14.7239
14.6134
14.5425
14.5091
14.5063
14.5261
14.5613
14.6058
14.655
14.7057
14.7557
14.8038
14.8493
14.8918
14.9313
14.9681
15.0022
15.0328
14.7149
14.579
14.4658
14.3758
14.3077
14.2585
14.2249
14.2034
14.191
14.1852
14.184
14.1858
14.1895
14.1942
14.1995
14.2049
14.2102
14.2148
14.7109
14.5642
14.4319
14.3142
14.2111
14.1218
14.0449
13.9791
13.9228
13.8744
13.8326
13.7964
13.7645
13.7363
13.711
13.6881
13.6672
13.6481
14.7089
14.5577
14.4176
14.2882
14.1691
14.0601
13.9606
13.8699
13.7873
13.7122
13.6436
13.581
13.5235
13.4707
13.422
13.3769
13.335
13.2965
14.7076
14.5544
14.4112
14.2772
14.1518
14.0345
13.925
13.8227
13.7273
13.6382
13.5551
13.4774
13.4048
13.3369
13.2732
13.2134
13.1573
13.1055
14.7067
14.5523
14.4076
14.2717
14.1439
14.0235
13.9101
13.8033
13.7025
13.6074
13.5177
13.4331
13.3531
13.2774
13.2059
13.1383
13.0744
13.0149
14.706
14.5507
14.4052
14.2684
14.1394
14.0178
13.9029
13.7943
13.6915
13.5941
13.5018
13.4143
13.3313
13.2524
13.1775
13.1063
13.0389
12.9759
14.7055
14.5497
14.4036
14.2662
14.1367
14.0144
13.8988
13.7894
13.6857
13.5874
13.494
13.4054
13.3211
13.241
13.1648
13.0922
13.0234
12.9591
14.7053
14.5494
14.403
14.2654
14.1356
14.013
13.8971
13.7873
13.6833
13.5846
13.4909
13.4019
13.3173
13.2369
13.1603
13.0875
13.0184
12.9539
14.7055
14.5497
14.4035
14.2659
14.1362
14.0138
13.8981
13.7886
13.685
13.5868
13.4937
13.4054
13.3216
13.2421
13.1665
13.0948
13.0269
12.9637
14.706
14.5507
14.4051
14.2683
14.1396
14.0185
13.9045
13.7971
13.6959
13.6006
13.5107
13.4259
13.346
13.2705
13.1992
13.1318
13.0683
13.0095
14.7068
14.5528
14.4093
14.2755
14.1509
14.0353
13.9279
13.8284
13.7361
13.6504
13.5708
13.4968
13.4279
13.3635
13.3034
13.2471
13.1944
13.146
14.7086
14.5589
14.4227
14.3001
14.1905
14.0931
14.0068
13.9303
13.8623
13.8016
13.747
13.6976
13.6526
13.6113
13.5731
13.5376
13.5045
13.4743
14.7142
14.5802
14.4708
14.3853
14.3209
14.2739
14.2405
14.2172
14.2011
14.1898
14.1815
14.175
14.1693
14.1638
14.1581
14.1519
14.1451
14.1383
14.7358
14.6588
14.6349
14.6534
14.7004
14.7639
14.8349
14.9068
14.9754
15.0383
15.0944
15.1431
15.1847
15.2195
15.2481
15.2713
15.2898
15.3046
14.8205
14.9298
15.138
15.3947
15.6602
15.9123
16.14
16.3384
16.5073
16.6492
16.7675
16.8658
16.9471
17.0143
17.0699
17.1159
17.154
17.1857
15.1412
15.7855
16.517
17.2068
17.7961
18.2813
18.6742
18.9897
19.2424
19.4453
19.6092
19.7427
19.8526
19.9443
20.0219
20.0885
20.1465
20.1979
16.3189
18.2995
19.9621
21.2351
22.1813
22.8822
23.4044
23.7998
24.1051
24.3458
24.5398
24.7003
24.8371
24.9574
25.0667
25.1688
25.2667
25.3618
20.7544
25.6375
28.6922
30.5982
31.8393
32.6632
33.2222
33.6186
33.9177
34.1615
34.3774
34.5834
34.791
35.0074
35.237
35.482
35.7432
36.0197
43.9611
54.4815
58.7073
60.4208
60.9763
60.9916
60.8477
60.7576
60.7887
60.9699
61.3105
61.8088
62.4576
63.2465
64.164
65.1976
66.3327
67.5616
332.626
280.253
240.732
210.192
186.153
166.94
151.386
138.653
128.129
119.361
112.006
105.799
100.536
96.0546
92.2268
88.9491
86.1381
83.7246
0.0399729
0.0530969
0.0758955
0.101414
0.127622
0.154303
0.182495
0.214704
0.250767
0.290268
0.333148
0.379858
0.431542
0.488761
0.549876
0.615783
0.686983
0.763812
0.846555
0.935485
1.03088
1.13303
1.24225
1.35889
1.48333
1.616
1.75738
1.908
2.06845
2.23937
2.42149
2.61558
2.82249
3.04316
3.27858
3.52985
3.79812
4.08465
4.3908
4.71802
5.06788
5.44208
5.84246
6.27106
6.7301
7.22208
7.74984
8.31662
8.92623
9.58319
10.293
11.0623
11.8998
12.8162
13.8258
14.9476
16.2075
17.6426
19.3074
21.2855
23.7105
26.7983
30.8948
36.5422
39.2047
41.8673
44.678
47.6516
50.7963
54.12
57.6307
61.3366
65.2456
69.3662
73.7064
78.2748
83.0795
88.129
93.4314
98.9949
104.828
110.938
117.332
124.019
131.006
138.299
145.904
153.829
162.077
170.654
179.564
188.81
198.394
208.315
218.575
229.17
240.097
251.349
262.919
274.794
286.963
299.409
312.114
325.054
338.206
351.543
365.036
378.656
392.375
406.17
420.031
433.972
447.878
461.608
475.112
488.341
501.245
513.771
525.87
537.494
548.595
559.128
569.052
578.33
586.928
594.816
601.972
608.377
614.021
618.898
623.009
626.366
628.983
630.885
632.102
632.672
632.64
632.058
630.98
629.471
627.599
625.444
623.101
620.695
618.413
616.211
614.009
611.86
609.812
607.908
606.182
604.657
603.351
602.268
601.405
600.751
600.287
599.988
599.821
599.75
599.733
599.728
599.703
599.645
599.569
599.425
598.931
598.006
596.554
594.472
591.645
587.954
583.272
577.468
570.421
562.057
552.414
541.8
531.976
525.805
0.129816
0.105458
0.108992
0.120697
0.137521
0.159148
0.185477
0.216229
0.251592
0.291133
0.334617
0.382216
0.434103
0.490345
0.550894
0.615857
0.685362
0.759548
0.83856
0.922558
1.01173
1.10627
1.20643
1.31248
1.42472
1.5435
1.66921
1.80226
1.94314
2.09235
2.25045
2.41806
2.59583
2.78448
2.98476
3.19752
3.42363
3.66405
3.91983
4.19207
4.48199
4.79092
5.12029
5.4717
5.84692
6.24793
6.67698
7.13661
7.62976
8.15983
8.73079
9.34729
10.0148
10.7395
11.5288
12.391
13.3355
14.3725
15.5137
16.7711
18.1562
19.6744
21.3082
22.9804
24.4811
26.0046
27.5993
29.2769
31.042
32.8984
34.8496
36.8991
39.0504
41.3071
43.6726
46.1504
48.7439
51.4566
54.2917
57.2524
60.3418
63.5629
66.9185
70.4113
74.0436
77.8177
81.7354
85.7984
90.008
94.3651
98.87
103.523
108.323
113.27
118.361
123.594
128.966
134.474
140.112
145.874
151.755
157.747
163.841
170.028
176.298
182.64
189.044
195.497
201.99
208.514
215.061
221.628
228.187
234.67
241.049
247.301
253.405
259.336
265.075
270.6
275.89
280.927
285.693
290.171
294.346
298.208
301.744
304.948
307.814
310.341
312.529
314.381
315.906
317.113
318.016
318.631
318.978
319.08
318.961
318.651
318.181
317.584
316.901
316.175
315.45
314.768
314.07
313.362
312.662
311.985
311.34
310.739
310.185
309.68
309.223
308.811
308.438
308.096
307.776
307.467
307.159
306.84
306.502
306.139
305.741
305.371
304.866
304.185
303.292
302.146
300.701
298.909
296.718
294.075
290.935
287.281
283.173
278.852
275.121
273.855
0.246932
0.174157
0.16739
0.178056
0.19775
0.22391
0.254774
0.290151
0.33002
0.374346
0.423105
0.476302
0.533951
0.596069
0.662679
0.733826
0.809589
0.890075
0.975419
1.06579
1.16138
1.26242
1.36917
1.48191
1.60099
1.72675
1.8596
1.99997
2.14836
2.30526
2.47126
2.64696
2.83302
3.03015
3.23912
3.46075
3.69593
3.9456
4.21081
4.49265
4.79231
5.1111
5.45041
5.81177
6.19685
6.60749
7.04571
7.51372
8.01401
8.54931
9.12266
9.73743
10.3973
11.1061
11.8679
12.6867
13.5657
14.5077
15.5137
16.5833
17.7141
18.9017
20.1378
21.4083
22.7007
24.0418
25.4459
26.9192
28.4651
30.0865
31.7862
33.5667
35.4308
37.3811
39.42
41.5502
43.7741
46.0941
48.5125
51.0315
53.6533
56.3798
59.2128
62.154
65.2048
68.3665
71.64
75.0262
78.5254
82.1379
85.8634
89.7015
93.6511
97.7111
101.88
106.154
110.533
115.011
119.587
124.255
129.01
133.847
138.761
143.743
148.787
153.886
159.03
164.212
169.422
174.652
179.893
185.137
190.352
195.508
200.583
205.56
210.421
215.151
219.733
224.152
228.393
232.442
236.286
239.913
243.312
246.475
249.394
252.063
254.48
256.643
258.552
260.211
261.625
262.802
263.752
264.488
265.024
265.378
265.568
265.615
265.543
265.374
265.135
264.851
264.542
264.227
263.884
263.52
263.144
262.766
262.394
262.031
261.681
261.345
261.022
260.71
260.405
260.102
259.798
259.484
259.157
258.809
258.436
258.03
257.59
257.093
256.478
255.72
254.794
253.672
252.325
250.719
248.819
246.591
244.008
241.063
237.813
234.447
231.518
230.202
0.39914
0.262468
0.244248
0.253892
0.275856
0.304751
0.33919
0.378644
0.422906
0.47189
0.525559
0.583894
0.646892
0.714564
0.786941
0.864077
0.946054
1.03299
1.12504
1.22239
1.32526
1.4339
1.54859
1.66966
1.79745
1.93235
2.07477
2.22518
2.38408
2.552
2.72953
2.9173
3.11598
3.32632
3.54909
3.78515
4.0354
4.3008
4.58241
4.88133
5.19877
5.536
5.89441
6.27547
6.68077
7.11199
7.57096
8.05963
8.58007
9.13449
9.72523
10.3547
11.0254
11.7399
12.5005
13.3094
14.1681
15.0775
16.0375
17.0473
18.1055
19.2109
20.363
21.5619
22.8099
24.1142
25.4804
26.9122
28.4124
29.9836
31.6281
33.3484
35.1467
37.0254
38.9867
41.0328
43.1658
45.3878
47.7007
50.1065
52.6068
55.2034
57.8975
60.6906
63.5837
66.5777
69.6734
72.8711
76.1712
79.5735
83.0776
86.683
90.3888
94.1937
98.0961
102.094
106.185
110.367
114.637
118.99
123.424
127.933
132.512
137.157
141.86
146.615
151.415
156.252
161.117
166.002
170.896
175.787
180.648
185.457
190.197
194.853
199.409
203.851
208.164
212.335
216.35
220.198
223.867
227.345
230.624
233.696
236.554
239.193
241.61
243.802
245.771
247.518
249.048
250.368
251.485
252.411
253.158
253.74
254.174
254.475
254.663
254.757
254.776
254.738
254.658
254.549
254.401
254.22
254.014
253.789
253.551
253.305
253.051
252.791
252.525
252.249
251.961
251.659
251.337
250.992
250.62
250.215
249.773
249.284
248.729
248.082
247.315
246.406
245.338
244.09
242.638
240.956
239.016
236.792
234.261
231.417
228.298
225.034
222.021
220.031
0.586161
0.367963
0.333063
0.338547
0.359742
0.390117
0.427232
0.470033
0.518035
0.571011
0.628859
0.691537
0.759045
0.831407
0.908677
0.990934
1.07829
1.17089
1.26891
1.37257
1.4821
1.59778
1.71992
1.84885
1.98495
2.12862
2.28029
2.44044
2.60958
2.78828
2.97712
3.17677
3.38792
3.61132
3.84777
4.09814
4.36336
4.64441
4.94234
5.25828
5.59341
5.94901
6.32641
6.72705
7.15243
7.60413
8.08381
8.59322
9.13416
9.70849
10.3181
10.9649
11.6509
12.3778
13.1474
13.9613
14.8207
15.7266
16.6794
17.6797
18.7277
19.8243
20.9712
22.1707
23.4257
24.74
26.117
27.5595
29.07
30.6511
32.3049
34.0339
35.8403
37.7263
39.6942
41.746
43.8838
46.1097
48.4255
50.8329
53.3337
55.9294
58.6213
61.4107
64.2986
67.2857
70.3728
73.5602
76.8481
80.2365
83.725
87.3131
91
94.7846
98.6657
102.642
106.71
110.87
115.117
119.45
123.864
128.357
132.923
137.557
142.254
147.008
151.812
156.657
161.535
166.437
171.353
176.263
181.146
185.984
190.762
195.464
200.076
204.583
208.972
213.23
217.345
221.303
225.094
228.708
232.135
235.367
238.398
241.222
243.836
246.236
248.424
250.399
252.166
253.729
255.097
256.276
257.28
258.118
258.806
259.358
259.789
260.116
260.355
260.52
260.626
260.684
260.691
260.651
260.57
260.455
260.309
260.138
259.941
259.721
259.475
259.203
258.901
258.567
258.197
257.785
257.329
256.825
256.265
255.626
254.89
254.038
253.051
251.913
250.61
249.124
247.435
245.521
243.358
240.921
238.19
235.154
231.83
228.291
224.82
221.947
0.79497
0.483198
0.426256
0.424127
0.443401
0.474446
0.51356
0.55908
0.6102
0.66652
0.727853
0.794128
0.865342
0.94154
1.02281
1.10925
1.20103
1.29832
1.40133
1.51029
1.62548
1.74719
1.87574
2.01148
2.15479
2.3061
2.46585
2.63452
2.81263
3.00077
3.19954
3.40959
3.63165
3.86647
4.11488
4.37775
4.65602
4.95068
5.26278
5.59346
5.94389
6.31532
6.70908
7.12654
7.56915
8.03842
8.5359
9.06321
9.62201
10.214
10.8408
11.5042
12.2058
12.9473
13.7303
14.5563
15.4266
16.3426
17.3055
18.3167
19.3774
20.4895
21.6552
22.8769
24.1574
25.4996
26.9063
28.3802
29.9237
31.5392
33.2293
34.9963
36.8425
38.7703
40.782
42.8799
45.066
47.3424
49.7113
52.1743
54.7333
57.3899
60.1454
63.0013
65.9586
69.0181
72.1806
75.4466
78.8164
82.2899
85.8671
89.5476
93.3307
97.2157
101.201
105.287
109.47
113.75
118.123
122.589
127.143
131.783
136.504
141.302
146.172
151.106
156.099
161.143
166.227
171.342
176.476
181.605
186.713
191.782
196.798
201.744
206.607
211.372
216.026
220.556
224.948
229.191
233.273
237.183
240.911
244.451
247.793
250.933
253.865
256.587
259.097
261.396
263.485
265.368
267.051
268.541
269.847
270.979
271.95
272.771
273.457
274.021
274.478
274.841
275.123
275.337
275.486
275.571
275.597
275.57
275.495
275.374
275.21
275.002
274.751
274.453
274.107
273.708
273.252
272.735
272.152
271.499
270.761
269.905
268.923
267.801
266.524
265.079
263.452
261.63
259.593
257.321
254.793
251.984
248.875
245.45
241.703
237.664
233.527
229.67
1.00846
0.596741
0.51606
0.50613
0.52309
0.554316
0.594895
0.642576
0.696233
0.755292
0.819474
0.888666
0.962861
1.04212
1.12656
1.21632
1.3116
1.4126
1.51957
1.63277
1.7525
1.87906
2.01278
2.15404
2.30322
2.46073
2.62704
2.80263
2.98804
3.18383
3.39062
3.60909
3.83994
4.08395
4.34195
4.61482
4.90349
5.20897
5.53231
5.87464
6.23713
6.62102
7.0276
7.45825
7.91436
8.3974
8.90888
9.45037
10.0234
10.6297
11.2708
11.9485
12.6643
13.4198
14.2169
15.057
15.9419
16.8731
17.8526
18.8819
19.9632
21.0984
22.2902
23.5409
24.8533
26.2302
27.6741
29.1878
30.774
32.4351
34.1739
35.9928
37.8946
39.8817
41.9566
44.1218
46.3796
48.7324
51.1824
53.7316
56.382
59.1354
61.9934
64.9575
68.0291
71.2091
74.4983
77.8976
81.4073
85.0276
88.7586
92.6001
96.5518
100.613
104.783
109.061
113.446
117.936
122.53
127.226
132.022
136.914
141.898
146.971
152.128
157.361
162.663
168.027
173.441
178.897
184.373
189.849
195.309
200.735
206.113
211.427
216.664
221.807
226.844
231.759
236.541
241.177
245.653
249.96
254.088
258.026
261.768
265.307
268.638
271.755
274.657
277.342
279.812
282.067
284.113
285.955
287.6
289.056
290.334
291.444
292.399
293.21
293.891
294.454
294.912
295.277
295.561
295.762
295.884
295.931
295.909
295.821
295.668
295.451
295.169
294.819
294.398
293.901
293.324
292.661
291.909
291.059
290.075
288.943
287.654
286.199
284.563
282.735
280.702
278.452
275.969
273.231
270.217
266.905
263.272
259.302
254.974
250.277
245.337
240.453
1.20797
0.70094
0.59902
0.581849
0.596396
0.627438
0.669
0.718299
0.773923
0.835128
0.901545
0.973016
1.04952
1.13114
1.21799
1.31027
1.40818
1.51198
1.62194
1.73833
1.86148
1.99169
2.12931
2.27472
2.42831
2.59049
2.76171
2.94248
3.13331
3.33479
3.54752
3.77218
4.00949
4.26022
4.52519
4.80529
5.10146
5.4147
5.74607
6.09668
6.46772
6.86041
7.27605
7.71599
8.18162
8.6744
9.19584
9.74748
10.3309
10.9478
11.5997
12.2884
13.0157
13.7832
14.5928
15.4462
16.3455
17.2926
18.2894
19.3383
20.4414
21.6012
22.8202
24.1012
25.447
26.8603
28.344
29.9009
31.5339
33.2458
35.0396
36.9181
38.8841
40.9406
43.0904
45.3362
47.6807
50.1266
52.6764
55.3324
58.0969
60.9721
63.9599
67.0619
70.2798
73.6148
77.068
80.6403
84.3324
88.1446
92.0772
96.1302
100.304
104.597
109.01
113.542
118.192
122.959
127.843
132.841
137.951
143.171
148.498
153.927
159.453
165.069
170.768
176.54
182.373
188.257
194.162
200.07
205.966
211.833
217.655
223.417
229.104
234.7
240.191
245.563
250.802
255.894
260.826
265.588
270.169
274.559
278.75
282.734
286.505
290.058
293.388
296.494
299.375
302.03
304.464
306.68
308.682
310.479
312.077
313.487
314.719
315.783
316.692
317.457
318.09
318.6
319.012
319.321
319.529
319.64
319.658
319.586
319.427
319.181
318.846
318.419
317.896
317.273
316.542
315.699
314.737
313.637
312.356
310.894
309.245
307.398
305.341
303.062
300.548
297.791
294.773
291.474
287.872
283.941
279.658
275.013
269.975
264.493
258.644
252.736
1.38933
0.794986
0.673776
0.649819
0.661839
0.692325
0.73437
0.78473
0.841727
0.904472
0.972505
1.04563
1.1238
1.2071
1.29568
1.38973
1.4895
1.59526
1.70729
1.82589
1.95138
2.08409
2.22437
2.37259
2.52913
2.69442
2.86891
3.05309
3.24747
3.45264
3.6692
3.89781
4.13921
4.39414
4.66345
4.948
5.24875
5.56669
5.90288
6.25844
6.63455
7.03244
7.45341
7.89882
8.37007
8.86863
9.39604
9.95386
10.5437
11.1673
11.8264
12.5228
13.2583
14.0347
14.8542
15.7188
16.6305
17.5916
18.6044
19.6715
20.7952
21.9785
23.2239
24.5345
25.9132
27.363
28.8871
30.4886
32.1707
33.9366
35.7895
37.7327
39.7695
41.9031
44.1367
46.4736
48.9168
51.4694
54.1343
56.9144
59.8122
62.8302
65.9709
69.2361
72.6278
76.1475
79.7966
83.5762
87.4871
91.5299
95.705
100.013
104.453
109.026
113.731
118.568
123.536
128.636
133.865
139.224
144.71
150.321
156.053
161.903
167.865
173.932
180.094
186.342
192.664
199.036
205.429
211.829
218.217
224.578
230.895
237.152
243.333
249.423
255.407
261.27
266.997
272.574
277.989
283.228
288.281
293.139
297.792
302.233
306.454
310.451
314.217
317.748
321.043
324.102
326.925
329.515
331.876
334.013
335.931
337.64
339.147
340.462
341.596
342.56
343.364
344.016
344.543
344.95
345.233
345.396
345.442
345.374
345.194
344.901
344.494
343.969
343.322
342.545
341.633
340.579
339.373
337.971
336.352
334.518
332.461
330.171
327.636
324.844
321.781
318.445
314.816
310.871
306.587
301.936
296.884
291.449
285.594
279.27
272.48
265.543
1.54956
0.87771
0.739314
0.70909
0.718495
0.748057
0.790079
0.840917
0.898673
0.962325
1.03134
1.10547
1.18467
1.26901
1.35865
1.45379
1.5547
1.66165
1.77492
1.89483
2.02168
2.15582
2.29758
2.44734
2.60547
2.7724
2.94858
3.13448
3.33062
3.53756
3.75592
3.98636
4.22958
4.48634
4.75748
5.04387
5.34645
5.66622
6.00423
6.36162
6.73957
7.13933
7.5622
8.00956
8.48286
8.98358
9.51331
10.0737
10.6664
11.2932
11.9559
12.6566
13.3971
14.1795
15.0061
15.8791
16.8008
17.7738
18.8006
19.884
21.0269
22.2321
23.5029
24.8423
26.2538
27.7406
29.3062
30.9542
32.6881
34.5116
36.4283
38.4421
40.5566
42.7757
45.103
47.5422
50.0969
52.7708
55.5672
58.4894
61.5406
64.7236
68.0412
71.4958
75.0896
78.8245
82.7021
86.7237
90.8903
95.2025
99.6609
104.266
109.017
113.916
118.96
124.152
129.489
134.972
140.601
146.374
152.291
158.348
164.543
170.872
177.328
183.903
190.587
197.368
204.231
211.135
218.06
224.989
231.904
238.789
245.627
252.401
259.094
265.692
272.178
278.536
284.753
290.813
296.703
302.409
307.923
313.233
318.331
323.209
327.861
332.28
336.46
340.395
344.082
347.522
350.714
353.658
356.359
358.818
361.041
363.033
364.802
366.357
367.706
368.859
369.824
370.613
371.238
371.727
372.073
372.276
372.338
372.259
372.043
371.687
371.19
370.548
369.754
368.8
367.681
366.388
364.9
363.158
361.166
358.919
356.411
353.631
350.566
347.202
343.522
339.534
335.223
330.555
325.507
320.055
314.173
307.864
301.095
293.851
286.095
278.147
1.68535
0.947987
0.794874
0.759051
0.765836
0.794152
0.835662
0.8864
0.94429
1.0082
1.07754
1.15204
1.23163
1.31638
1.40645
1.50204
1.60342
1.71085
1.82462
1.94501
2.07234
2.20693
2.34913
2.49928
2.65777
2.82502
3.00145
3.18754
3.38381
3.59081
3.80915
4.03947
4.28249
4.53896
4.80971
5.0956
5.39759
5.71667
6.05391
6.41044
6.78746
7.18624
7.60812
8.05449
8.52685
9.02673
9.55579
10.1157
10.7083
11.3355
11.9992
12.7015
13.4445
14.2307
15.0622
15.9417
16.8719
17.8553
18.8951
19.9941
21.1556
22.383
23.6796
25.0491
26.4951
28.0215
29.6321
31.331
33.1222
35.01
36.9985
39.0921
41.2952
43.6119
46.0467
48.6039
51.2876
54.102
57.0512
60.1388
63.3687
66.7441
70.2683
73.9442
77.7743
81.7607
85.9054
90.2097
94.6746
99.3009
104.089
109.039
114.152
119.426
124.863
130.461
136.221
142.143
148.226
154.469
160.872
167.432
174.146
181.01
188.016
195.154
202.413
209.78
217.218
224.688
232.173
239.654
247.114
254.534
261.897
269.186
276.385
283.478
290.448
297.282
303.963
310.475
316.804
322.939
328.871
334.589
340.085
345.352
350.385
355.179
359.724
364.015
368.048
371.824
375.341
378.6
381.602
384.349
386.845
389.093
391.098
392.87
394.415
395.739
396.85
397.759
398.47
399.02
399.409
399.635
399.696
399.592
399.323
398.886
398.28
397.5
396.536
395.38
394.026
392.461
390.645
388.535
386.134
383.437
380.435
377.116
373.468
369.476
365.124
360.408
355.312
349.813
343.893
337.534
330.721
323.455
315.713
307.508
298.78
289.842
1.79482
1.00517
0.840036
0.799414
0.803671
0.830491
0.871052
0.921147
0.978568
1.04211
1.11114
1.18537
1.26473
1.34928
1.43919
1.53465
1.63589
1.74318
1.85676
1.97693
2.10396
2.23818
2.37989
2.52946
2.68726
2.85367
3.02914
3.21413
3.40915
3.61476
3.83154
4.06016
4.3013
4.55574
4.82429
5.10783
5.4073
5.72372
6.05817
6.4118
6.78582
7.18154
7.60033
8.04364
8.51301
9.01006
9.53652
10.0942
10.685
11.311
11.9742
12.677
13.4217
14.2109
15.0471
15.9332
16.8721
17.867
18.921
20.0377
21.2205
22.4733
23.8
25.2045
26.6912
28.2644
29.9285
31.6881
33.548
35.5128
37.5876
39.7773
42.0869
44.5214
47.0858
49.7851
52.6242
55.6079
58.7408
62.0273
65.4717
69.0778
72.8494
76.7897
80.9015
85.1874
89.6494
94.2888
99.1067
104.103
109.279
114.634
120.167
125.879
131.769
137.837
144.083
150.505
157.105
163.881
170.832
177.956
185.25
192.708
200.322
208.079
215.967
223.961
231.999
240.058
248.117
256.156
264.158
272.105
279.977
287.759
295.433
302.983
310.394
317.652
324.745
331.65
338.355
344.852
351.13
357.182
363.001
368.581
373.919
379.013
383.849
388.422
392.731
396.775
400.555
404.068
407.316
410.3
413.021
415.481
417.684
419.635
421.343
422.811
424.044
425.049
425.835
426.413
426.815
427.037
427.076
426.925
426.581
426.041
425.303
424.357
423.195
421.807
420.185
418.298
416.089
413.548
410.673
407.456
403.887
399.953
395.64
390.933
385.817
380.286
374.323
367.915
361.049
353.718
345.916
337.647
328.907
319.721
310.028
300.123
1.87751
1.0491
0.874735
0.830201
0.832125
0.857297
0.896558
0.945539
1.00195
1.06454
1.13266
1.20604
1.28461
1.36843
1.45766
1.55247
1.65306
1.75967
1.87252
1.99187
2.11798
2.25115
2.39167
2.53988
2.69614
2.86085
3.03443
3.21734
3.41009
3.61323
3.82735
4.05311
4.29121
4.54242
4.80756
5.08753
5.3833
5.69588
6.02639
6.376
6.74597
7.13766
7.55248
7.99197
8.45774
8.95152
9.47514
10.0305
10.6198
11.2451
11.9089
12.6135
13.3617
14.1562
15
15.8962
16.8483
17.8596
18.9339
20.0751
21.2873
22.5749
23.9421
25.3938
26.9349
28.5702
30.305
32.1447
34.0946
36.1602
38.3473
40.6614
43.1085
45.6943
48.4246
51.3052
54.3417
57.5395
60.9039
64.4399
68.1522
72.0454
76.1233
80.3897
84.8477
89.4998
94.3483
99.3943
104.639
110.081
115.72
121.556
127.588
133.815
140.236
146.85
153.657
160.656
167.846
175.227
182.798
190.556
198.498
206.616
214.899
223.336
231.906
240.536
249.191
257.846
266.474
275.058
283.58
292.02
300.361
308.585
316.675
324.616
332.394
339.997
347.418
354.628
361.613
368.371
374.895
381.178
387.216
393.003
398.537
403.817
408.837
413.591
418.08
422.302
426.257
429.944
433.361
436.51
439.394
442.007
444.351
446.43
448.256
449.83
451.148
452.216
453.04
453.625
453.996
454.166
454.125
453.869
453.392
452.691
451.761
450.59
449.169
447.486
445.524
443.231
440.57
437.535
434.121
430.317
426.112
421.492
416.444
410.952
405.005
398.593
391.707
384.339
376.484
368.144
359.323
350.035
340.288
330.121
319.475
308.629
1.93426
1.08013
0.899253
0.851754
0.851648
0.875145
0.912879
0.96039
1.01535
1.0765
1.14324
1.21529
1.29263
1.37531
1.46346
1.55724
1.65682
1.76237
1.8741
1.99222
2.11698
2.24865
2.3875
2.53387
2.6881
2.85059
3.02174
3.20203
3.39196
3.59209
3.80303
4.02544
4.26004
4.50762
4.76903
5.04519
5.33709
5.6458
5.97248
6.31835
6.68475
7.0731
7.48492
7.92184
8.3856
8.87808
9.40127
9.95732
10.5485
11.1773
11.8463
12.5583
13.3163
14.1236
14.9834
15.8994
16.8754
17.9156
19.0241
20.2055
21.4647
22.8064
24.2361
25.7592
27.3813
29.1084
30.9464
32.9018
34.9807
37.1895
39.5346
42.0225
44.66
47.4539
50.4106
53.5367
56.8385
60.3221
63.9933
67.8576
71.9201
76.1855
80.6581
85.3416
90.239
95.353
100.685
106.238
112.01
118
124.204
130.622
137.252
144.093
151.143
158.4
165.861
173.527
181.395
189.465
197.737
206.206
214.869
223.716
232.734
241.905
251.158
260.424
269.689
278.921
288.085
297.169
306.154
315.023
323.756
332.337
340.75
348.98
357.013
364.839
372.447
379.821
386.953
393.838
400.471
406.849
412.967
418.825
424.421
429.756
434.831
439.643
444.189
448.471
452.492
456.248
459.735
462.953
465.916
468.605
471.017
473.152
475.015
476.604
477.921
478.969
479.753
480.277
480.543
480.584
480.392
479.961
479.284
478.354
477.164
475.701
473.953
471.906
469.525
466.752
463.576
459.986
455.97
451.518
446.616
441.252
435.41
429.08
422.251
414.916
407.071
398.714
389.849
380.485
370.639
360.332
349.585
338.449
326.87
315.117
1.96711
1.09903
0.914219
0.864753
0.86306
0.885029
0.921192
0.967054
1.02029
1.0797
1.14473
1.21517
1.29103
1.37237
1.45928
1.55188
1.65029
1.75465
1.86512
1.98188
2.10517
2.23523
2.37233
2.51679
2.66896
2.82922
2.998
3.17578
3.36307
3.56046
3.76858
3.98813
4.21986
4.46462
4.72329
4.99685
5.28636
5.59297
5.91791
6.26252
6.62823
7.01661
7.42932
7.86818
8.33513
8.83226
9.36184
9.9263
10.5283
11.1706
11.8562
12.5884
13.3708
14.207
15.101
16.0572
17.0801
18.1744
19.3454
20.5984
21.939
23.3733
24.9075
26.548
28.3017
30.1755
32.1768
34.3129
36.5916
39.0196
41.6038
44.3519
47.2716
50.3704
53.6557
57.1346
60.8138
64.6998
68.7986
73.1159
77.6565
82.4251
87.4256
92.6612
98.1346
103.848
109.801
115.997
122.437
129.112
136.014
143.145
150.5
158.078
165.875
173.887
182.112
190.547
199.19
208.04
217.096
226.353
235.807
245.447
255.249
265.146
275.03
284.881
294.678
304.394
314.004
323.489
332.83
342.009
351.009
359.812
368.405
376.774
384.908
392.796
400.43
407.803
414.909
421.748
428.317
434.616
440.644
446.4
451.889
457.116
462.086
466.8
471.254
475.449
479.398
483.096
486.527
489.691
492.585
495.204
497.544
499.602
501.379
502.874
504.085
505.015
505.666
506.04
506.138
505.962
505.537
504.851
503.896
502.662
501.136
499.306
497.158
494.667
491.78
488.468
484.716
480.509
475.835
470.68
465.031
458.873
452.196
444.988
437.244
428.959
420.136
410.778
400.898
390.514
379.651
368.34
356.615
344.532
332.053
319.431
1.9792
1.10692
0.920627
0.870308
0.86768
0.888523
0.923343
0.967646
1.01915
1.07675
1.14002
1.20889
1.28338
1.36355
1.44942
1.54105
1.63852
1.74192
1.85139
1.96711
2.08929
2.21817
2.35403
2.4972
2.64804
2.80694
2.97436
3.15079
3.3368
3.53301
3.74013
3.95892
4.19021
4.43493
4.69407
4.96872
5.26006
5.56937
5.89805
6.24761
6.61971
7.01613
7.43882
7.88988
8.37163
8.88654
9.43732
10.0269
10.6585
11.3356
12.0616
12.8407
13.6772
14.5757
15.5411
16.5788
17.6945
18.894
20.1839
21.5706
23.0612
24.6631
26.3838
28.2311
30.2133
32.3387
34.616
37.0545
39.6644
42.4521
45.4229
48.5862
51.9506
55.5241
59.3141
63.3278
67.5717
72.0519
76.7737
81.7416
86.9596
92.4311
98.1588
104.145
110.389
116.893
123.655
130.672
137.943
145.459
153.215
161.206
169.428
177.876
186.543
195.425
204.516
213.812
223.31
233.009
242.907
252.998
263.279
273.724
284.249
294.723
305.123
315.43
325.622
335.676
345.572
355.289
364.809
374.115
383.19
392.019
400.591
408.893
416.916
424.654
432.102
439.257
446.119
452.693
458.984
464.991
470.715
476.162
481.338
486.252
490.923
495.355
499.534
503.463
507.143
510.573
513.746
516.658
519.307
521.687
523.795
525.626
527.179
528.449
529.434
530.133
530.544
530.668
530.503
530.043
529.293
528.265
526.946
525.322
523.379
521.103
518.472
515.446
511.986
508.073
503.685
498.808
493.423
487.518
481.077
474.089
466.543
458.431
449.752
440.505
430.698
420.342
409.457
398.069
386.211
373.925
361.253
348.261
334.923
321.481
1.97335
1.10516
0.919958
0.870186
0.867621
0.888139
0.922272
0.965523
1.01565
1.07174
1.13371
1.20161
1.27547
1.35523
1.44084
1.53229
1.62963
1.73294
1.84238
1.95812
2.08041
2.20951
2.34574
2.48946
2.64107
2.80102
2.96979
3.14795
3.33614
3.53511
3.74567
3.96874
4.20531
4.45648
4.72345
5.00751
5.31009
5.63275
5.97719
6.34527
6.73906
7.16081
7.61296
8.09824
8.61958
9.18023
9.78374
10.434
11.1354
11.8926
12.7099
13.5926
14.5468
15.5785
16.6946
17.9019
19.2081
20.6211
22.149
23.8007
25.585
27.511
29.5882
31.8262
34.2345
36.8229
39.601
42.5784
45.7644
49.1668
52.7927
56.6501
60.7462
65.0876
69.6806
74.5304
79.6416
85.0178
90.6618
96.5752
102.759
109.214
115.941
122.937
130.203
137.734
145.526
153.573
161.868
170.404
179.172
188.167
197.383
206.812
216.445
226.274
236.291
246.491
256.868
267.419
278.148
289.036
300.076
311.126
322.061
332.867
343.53
354.033
364.356
374.482
384.391
394.065
403.487
412.641
421.512
430.088
438.358
446.313
453.948
461.26
468.246
474.909
481.253
487.291
493.042
498.501
503.67
508.559
513.177
517.536
521.65
525.524
529.158
532.556
535.719
538.647
541.338
543.787
545.992
547.947
549.646
551.086
552.259
553.161
553.785
554.126
554.18
553.942
553.407
552.569
551.419
549.956
548.181
546.079
543.632
540.822
537.616
533.977
529.882
525.308
520.23
514.63
508.489
501.793
494.526
486.678
478.24
469.21
459.586
449.377
438.593
427.254
415.386
403.023
390.206
376.987
363.415
349.564
335.422
321.223
1.95405
1.09591
0.914839
0.867507
0.866502
0.888057
0.92281
0.96623
1.01592
1.07155
1.13375
1.2025
1.27749
1.35856
1.44562
1.53866
1.63777
1.74307
1.85476
1.9731
2.09841
2.23103
2.37138
2.51993
2.67719
2.84375
3.0201
3.20695
3.40514
3.61566
3.8396
4.0782
4.3328
4.60489
4.89611
5.20821
5.54317
5.90311
6.29043
6.70778
7.1581
7.64466
8.17109
8.74139
9.35997
10.0317
10.7619
11.5564
12.4216
13.3644
14.392
15.5126
16.7348
18.0679
19.5216
21.1062
22.8325
24.7113
26.7541
28.9719
31.3762
33.9778
36.7876
39.8158
43.0724
46.5665