/*--------------------------------*- C++ -*----------------------------------*\
| =========                 |                                                 |
| \\      /  F ield         | OpenFOAM: The Open Source CFD Toolbox           |
|  \\    /   O peration     | Version:  1.4.2                                 |
|   \\  /    A nd           | Web:      http://www.openfoam.org               |
|    \\/     M anipulation  |                                                 |
\*---------------------------------------------------------------------------*/
FoamFile
{
    version     2.0;
    format      ascii;
    class       volScalarField;
    object      k;
    location    "700";
}
// * * * * * * * * * * * * * * * * * * * * * * * * * * * * * * * * * * * * * //

dimensions      [0 2 -2 0 0 0 0];

internalField   nonuniform List<scalar> 
12225
(
0.315115
0.271063
0.237885
0.212505
0.1929
0.17769
0.165905
0.156845
0.14999
0.144947
0.141411
0.139139
0.137934
0.137633
0.138097
0.139208
0.140863
0.143167
0.365357
0.357609
0.353827
0.353686
0.356737
0.362618
0.371004
0.3816
0.394137
0.408365
0.424048
0.440955
0.458864
0.477557
0.496815
0.516418
0.536061
0.556333
0.370187
0.364636
0.360183
0.356898
0.354768
0.35374
0.353744
0.354696
0.356512
0.359109
0.362404
0.366318
0.370768
0.375667
0.380918
0.386394
0.391906
0.397308
0.371735
0.367478
0.363488
0.359997
0.357015
0.354545
0.352574
0.351071
0.350002
0.349327
0.349007
0.349002
0.349273
0.349779
0.350473
0.351304
0.352208
0.353146
0.372438
0.36905
0.36559
0.362328
0.359334
0.35663
0.354215
0.35208
0.350207
0.348579
0.347176
0.345975
0.344956
0.344095
0.343368
0.342751
0.342218
0.34176
0.37275
0.369943
0.366992
0.364059
0.361251
0.35861
0.356154
0.353885
0.351798
0.349883
0.348131
0.346528
0.345062
0.343721
0.342491
0.341358
0.340312
0.339356
0.372878
0.37041
0.367854
0.365269
0.362723
0.360258
0.357904
0.355675
0.353577
0.351609
0.349766
0.348042
0.34643
0.34492
0.343506
0.34218
0.340936
0.339788
0.372918
0.370599
0.368258
0.365906
0.363576
0.361296
0.359086
0.356965
0.354939
0.353014
0.351191
0.349466
0.347836
0.346296
0.344841
0.343465
0.342165
0.340959
0.372933
0.370688
0.368473
0.366277
0.364109
0.361983
0.359911
0.357906
0.355976
0.354125
0.352356
0.350671
0.349067
0.347541
0.346091
0.344712
0.343404
0.342183
0.372937
0.37073
0.368595
0.36651
0.364471
0.362481
0.360543
0.358662
0.356844
0.355091
0.353407
0.351792
0.350246
0.348769
0.347357
0.346008
0.344723
0.343519
0.372937
0.370746
0.368652
0.366634
0.364684
0.362796
0.360967
0.359196
0.357486
0.355835
0.354245
0.352716
0.351247
0.349837
0.348486
0.347191
0.345952
0.34479
0.372936
0.370748
0.36867
0.366686
0.364785
0.362961
0.361206
0.359518
0.357892
0.356327
0.354822
0.353374
0.351982
0.350646
0.349362
0.348129
0.34695
0.34584
0.372936
0.370745
0.36867
0.366698
0.364819
0.363026
0.361312
0.359672
0.358101
0.356595
0.355151
0.353765
0.352436
0.35116
0.349935
0.34876
0.347636
0.346579
0.372937
0.370743
0.368666
0.366694
0.364821
0.363038
0.361341
0.359723
0.358179
0.356704
0.355294
0.353945
0.352654
0.351418
0.350235
0.349101
0.348018
0.347002
0.372939
0.370742
0.368662
0.366687
0.364813
0.363031
0.361337
0.359724
0.358188
0.356724
0.355328
0.353995
0.352722
0.351506
0.350343
0.349231
0.348172
0.347179
0.372943
0.370745
0.368661
0.366683
0.364805
0.363021
0.361325
0.359711
0.358175
0.356712
0.355317
0.353987
0.352719
0.351508
0.350351
0.349247
0.348197
0.347214
0.372948
0.370749
0.368663
0.366683
0.364802
0.363015
0.361315
0.359699
0.358159
0.356694
0.355297
0.353965
0.352695
0.351482
0.350326
0.349222
0.348172
0.347191
0.372951
0.370752
0.368664
0.366683
0.3648
0.363011
0.361309
0.35969
0.358148
0.356679
0.355279
0.353944
0.35267
0.351455
0.350295
0.349188
0.348135
0.34715
0.372947
0.370747
0.368661
0.366679
0.364796
0.363006
0.361303
0.359681
0.358136
0.356663
0.355258
0.353918
0.352638
0.351416
0.350248
0.349133
0.348072
0.347079
0.372942
0.370743
0.368656
0.366675
0.36479
0.362997
0.361289
0.359661
0.358107
0.356624
0.355206
0.353851
0.352555
0.351315
0.350128
0.348992
0.347909
0.346894
0.372938
0.370738
0.368651
0.366665
0.364774
0.362969
0.361244
0.359594
0.358014
0.356499
0.355047
0.353654
0.352317
0.351034
0.349802
0.348621
0.347492
0.346431
0.372934
0.370732
0.368636
0.366632
0.364712
0.362868
0.361095
0.359387
0.357741
0.356155
0.354627
0.353155
0.351738
0.350373
0.349061
0.3478
0.346593
0.345458
0.372927
0.37071
0.36858
0.36652
0.364521
0.36258
0.360694
0.358864
0.357089
0.355371
0.353711
0.35211
0.350566
0.349081
0.347654
0.346285
0.344977
0.343748
0.37291
0.370639
0.368408
0.366204
0.36403
0.361893
0.359802
0.357765
0.355788
0.353878
0.352037
0.350268
0.348572
0.346948
0.345396
0.343914
0.342504
0.341187
0.372856
0.370429
0.367957
0.365456
0.362964
0.36051
0.358116
0.3558
0.353574
0.351443
0.34941
0.347475
0.345636
0.34389
0.342235
0.340667
0.339185
0.337808
0.372693
0.369884
0.366925
0.36392
0.360959
0.358089
0.355337
0.35272
0.350244
0.347909
0.345714
0.343652
0.34172
0.33991
0.338216
0.336631
0.335151
0.333789
0.37223
0.368599
0.364817
0.361096
0.357537
0.354185
0.351059
0.348165
0.345497
0.343047
0.340806
0.33876
0.336897
0.335202
0.333663
0.332268
0.331005
0.329876
0.370946
0.365685
0.36055
0.355801
0.35149
0.347644
0.344266
0.341333
0.338816
0.336679
0.334887
0.333407
0.332206
0.331256
0.330529
0.33
0.329646
0.329455
0.366354
0.35712
0.349251
0.3429
0.337988
0.334391
0.331962
0.330545
0.330001
0.330208
0.331058
0.33246
0.334334
0.336609
0.339225
0.342126
0.345261
0.348624
0.329178
0.293648
0.265348
0.242403
0.223549
0.20789
0.194768
0.183687
0.174271
0.166227
0.159326
0.153384
0.148254
0.143815
0.139969
0.136633
0.133739
0.131229
0.00141442
0.00178949
0.00226977
0.00275275
0.00320765
0.00363921
0.00406845
0.00453197
0.00502418
0.00553671
0.00606702
0.00661893
0.00720335
0.00782364
0.00845943
0.0091187
0.00980452
0.0105181
0.0112598
0.0120302
0.0128294
0.013658
0.0145165
0.0154056
0.0163262
0.0172795
0.0182667
0.0192894
0.0203494
0.0214485
0.0225889
0.0237729
0.025003
0.0262819
0.0276123
0.0289971
0.0304395
0.0319425
0.0335096
0.0351442
0.03685
0.0386308
0.0404909
0.0424347
0.0444671
0.0465936
0.0488203
0.0511544
0.0536044
0.0561803
0.0588946
0.0617628
0.064805
0.0680472
0.0715248
0.0752865
0.0794015
0.0839699
0.0891388
0.0951261
0.102254
0.110997
0.122052
0.136472
0.142971
0.149309
0.15585
0.162618
0.169619
0.176857
0.184339
0.192068
0.200048
0.208283
0.216776
0.225531
0.23455
0.243836
0.253391
0.263216
0.273314
0.283683
0.294326
0.305241
0.316428
0.327886
0.339613
0.351607
0.363863
0.376379
0.38915
0.402169
0.415429
0.428923
0.44264
0.456571
0.4707
0.485016
0.499499
0.514133
0.528896
0.543764
0.558714
0.573717
0.588744
0.603766
0.618751
0.633669
0.648494
0.663205
0.677795
0.692283
0.706564
0.720489
0.734021
0.747119
0.759746
0.771864
0.783435
0.794425
0.804801
0.814532
0.823591
0.831955
0.839601
0.846514
0.852681
0.858095
0.862754
0.866659
0.86982
0.872249
0.873967
0.874998
0.875374
0.875131
0.87431
0.872959
0.871129
0.868877
0.866265
0.86336
0.860238
0.856992
0.853747
0.850713
0.847676
0.844667
0.841734
0.838919
0.836255
0.83377
0.831481
0.829395
0.827515
0.825833
0.824333
0.822992
0.821782
0.820673
0.819626
0.818601
0.81756
0.81648
0.815361
0.814287
0.812911
0.811165
0.808964
0.806209
0.802802
0.798628
0.793569
0.787501
0.780309
0.771917
0.762345
0.751868
0.742104
0.73572
0.00195247
0.00321719
0.00437551
0.0054272
0.00643261
0.00743263
0.00846592
0.00951499
0.010595
0.0117056
0.0128495
0.014035
0.0152667
0.0165462
0.0178731
0.0192477
0.0206701
0.0221404
0.023659
0.0252264
0.0268431
0.0285102
0.0302287
0.0320001
0.0338262
0.035709
0.0376511
0.0396552
0.0417245
0.0438625
0.046073
0.0483602
0.0507286
0.0531831
0.0557286
0.0583705
0.0611145
0.0639663
0.0669322
0.0700185
0.0732319
0.0765793
0.0800682
0.0837062
0.0875017
0.0914633
0.0956006
0.099924
0.104445
0.109176
0.11413
0.119325
0.124778
0.130508
0.136538
0.142893
0.1496
0.156689
0.164191
0.172141
0.180567
0.189478
0.198818
0.20838
0.217653
0.22713
0.236929
0.24708
0.257597
0.26849
0.27977
0.291445
0.303523
0.316012
0.328921
0.342257
0.356028
0.370239
0.384898
0.40001
0.415582
0.431619
0.448124
0.465102
0.482557
0.500492
0.518909
0.537808
0.557192
0.577058
0.597407
0.618235
0.639538
0.66131
0.683545
0.706233
0.729361
0.752916
0.776879
0.80123
0.825944
0.850992
0.876341
0.901954
0.927788
0.953796
0.979927
1.00613
1.03233
1.05849
1.08454
1.11041
1.13589
1.16092
1.18542
1.20932
1.23253
1.25498
1.27658
1.29727
1.31696
1.3356
1.35311
1.36944
1.38453
1.39834
1.41084
1.422
1.4318
1.44023
1.4473
1.45303
1.45745
1.4606
1.46253
1.46331
1.46301
1.46173
1.45956
1.45662
1.453
1.44884
1.44427
1.4394
1.43438
1.42928
1.42412
1.41896
1.41391
1.40902
1.40435
1.39997
1.39592
1.39223
1.38893
1.38603
1.38354
1.38147
1.37982
1.37856
1.37769
1.37717
1.37698
1.37709
1.37744
1.37758
1.3776
1.37744
1.37697
1.37607
1.37459
1.37235
1.36914
1.36475
1.35889
1.35125
1.3415
1.32916
1.31434
1.29767
0.00299756
0.00501666
0.00675507
0.00835894
0.00991301
0.011449
0.012954
0.0144533
0.0159665
0.0175068
0.0190838
0.0207043
0.0223728
0.0240923
0.0258649
0.0276917
0.0295735
0.0315114
0.0335065
0.0355602
0.0376742
0.0398503
0.0420906
0.0443974
0.0467736
0.0492222
0.0517465
0.0543504
0.057038
0.0598139
0.0626831
0.0656511
0.0687235
0.0719067
0.0752071
0.0786317
0.0821879
0.0858831
0.0897255
0.0937234
0.0978855
0.102221
0.106739
0.111451
0.116365
0.121494
0.126849
0.132442
0.138287
0.144397
0.150788
0.157475
0.164476
0.171808
0.17949
0.187538
0.19597
0.204799
0.214035
0.223684
0.233744
0.244205
0.255039
0.266203
0.277671
0.289524
0.301802
0.314527
0.327713
0.341373
0.355517
0.370158
0.385306
0.400971
0.417164
0.433894
0.45117
0.469
0.487395
0.50636
0.525902
0.546029
0.566746
0.588058
0.609969
0.632483
0.655602
0.679327
0.70366
0.728599
0.754142
0.780287
0.807029
0.834361
0.862276
0.890761
0.919806
0.949393
0.979503
1.01011
1.0412
1.07272
1.10465
1.13695
1.16955
1.20242
1.23548
1.26868
1.30194
1.33518
1.36833
1.40126
1.43377
1.46578
1.49718
1.52788
1.55778
1.58677
1.61475
1.64163
1.66731
1.69169
1.71471
1.73627
1.7563
1.77476
1.79159
1.80674
1.82021
1.83196
1.84202
1.8504
1.85713
1.86226
1.86585
1.868
1.8688
1.86835
1.86678
1.86423
1.86082
1.85672
1.85206
1.847
1.8417
1.83625
1.83069
1.82511
1.8196
1.81425
1.80913
1.8043
1.79981
1.7957
1.79201
1.78875
1.78594
1.78357
1.78166
1.78019
1.77913
1.77847
1.77818
1.7782
1.77822
1.77806
1.77775
1.77718
1.77623
1.77476
1.77259
1.76952
1.76531
1.7597
1.75235
1.74284
1.73073
1.71537
1.69672
1.67531
0.00412882
0.00705566
0.00947917
0.0116571
0.0136979
0.0156281
0.0174983
0.0193443
0.021192
0.0230604
0.0249634
0.0269103
0.0289078
0.0309605
0.0330714
0.0352431
0.0374774
0.0397763
0.0421418
0.0445761
0.0470818
0.0496615
0.0523181
0.0550548
0.057875
0.0607825
0.0637815
0.0668765
0.0700724
0.0733747
0.0767891
0.0803221
0.0839805
0.0877715
0.0917029
0.0957831
0.100021
0.104425
0.109005
0.113771
0.118734
0.123905
0.129294
0.134914
0.140778
0.146897
0.153285
0.159957
0.166925
0.174207
0.181816
0.189769
0.198081
0.20677
0.21585
0.225337
0.235244
0.24558
0.256355
0.267571
0.279232
0.291338
0.303889
0.316888
0.330349
0.3443
0.358764
0.373759
0.3893
0.405401
0.422075
0.439337
0.457197
0.47567
0.494766
0.514496
0.534872
0.555904
0.5776
0.599969
0.62302
0.646758
0.671191
0.696323
0.722158
0.748699
0.775948
0.803907
0.832574
0.861949
0.892028
0.922807
0.95428
0.986441
1.01928
1.05279
1.08694
1.12174
1.15716
1.19317
1.22974
1.26685
1.30446
1.34252
1.38099
1.41979
1.45888
1.49817
1.53758
1.57704
1.61644
1.65558
1.69432
1.73255
1.77014
1.80699
1.84298
1.87797
1.91187
1.94455
1.97589
2.00581
2.03418
2.06092
2.08595
2.10918
2.13057
2.15005
2.1676
2.18319
2.19682
2.20851
2.21829
2.22621
2.23234
2.23677
2.2396
2.24095
2.24095
2.23975
2.23749
2.23435
2.23048
2.22604
2.22119
2.21609
2.21077
2.20533
2.19987
2.19448
2.18924
2.18422
2.17947
2.17504
2.17095
2.16722
2.16386
2.16088
2.15826
2.15599
2.15404
2.15239
2.151
2.14971
2.14813
2.14628
2.14411
2.14152
2.13838
2.13454
2.12982
2.12401
2.11685
2.10805
2.09723
2.08393
2.06758
2.04744
2.0236
1.99675
0.00533516
0.00923885
0.0123638
0.0150591
0.0174865
0.0197572
0.0219388
0.0240761
0.0262014
0.0283385
0.0305048
0.0327133
0.0349731
0.0372912
0.0396725
0.042121
0.04464
0.0472326
0.0499018
0.0526506
0.0554824
0.0584004
0.0614082
0.0645095
0.0677083
0.0710088
0.0744158
0.0779342
0.0815695
0.0853277
0.0892152
0.093239
0.0974068
0.101727
0.106207
0.110858
0.115689
0.120709
0.125931
0.131366
0.137025
0.14292
0.149065
0.155474
0.162158
0.169134
0.176415
0.184017
0.191954
0.200243
0.2089
0.21794
0.22738
0.237236
0.247522
0.258253
0.269443
0.281103
0.293243
0.305874
0.319003
0.33264
0.346797
0.361487
0.376727
0.392539
0.408941
0.425951
0.443584
0.461858
0.480787
0.500388
0.520673
0.541658
0.563357
0.585781
0.608944
0.632856
0.657529
0.682971
0.709192
0.7362
0.763999
0.792597
0.821996
0.852201
0.883211
0.915028
0.947651
0.981077
1.0153
1.05032
1.08613
1.12273
1.16009
1.19822
1.23709
1.2767
1.31703
1.35805
1.39974
1.44207
1.485
1.52849
1.57249
1.61693
1.66176
1.70689
1.75223
1.79769
1.84317
1.8884
1.93328
1.97767
2.02145
2.06449
2.10665
2.1478
2.18782
2.22656
2.26391
2.29974
2.33394
2.36638
2.39698
2.42564
2.45229
2.47686
2.4993
2.51958
2.53768
2.5536
2.56738
2.57905
2.58868
2.59634
2.60214
2.60619
2.60863
2.6096
2.60927
2.60778
2.60532
2.60204
2.5981
2.59372
2.58896
2.58389
2.57862
2.57326
2.56789
2.56259
2.55741
2.55239
2.54756
2.54295
2.53854
2.53434
2.53034
2.52649
2.52279
2.5192
2.51567
2.51173
2.50733
2.50246
2.49703
2.49096
2.4841
2.47633
2.46747
2.45728
2.44552
2.43187
2.41594
2.39722
2.37507
2.34863
2.31808
2.28414
0.00653802
0.0114284
0.0151847
0.0183096
0.0210929
0.0236754
0.0261385
0.0285355
0.0309042
0.033273
0.0356631
0.0380909
0.0405684
0.0431052
0.0457087
0.0483847
0.0511383
0.053974
0.056896
0.0599083
0.0630148
0.0662195
0.0695263
0.0729395
0.0764633
0.0801023
0.0838613
0.0877458
0.0917615
0.0959147
0.100212
0.104662
0.109271
0.114049
0.119006
0.124151
0.129495
0.135049
0.140825
0.146836
0.153094
0.159614
0.166408
0.173493
0.180882
0.188591
0.196635
0.205032
0.213797
0.222946
0.232497
0.242465
0.252869
0.263724
0.275046
0.286851
0.299154
0.31197
0.325313
0.339195
0.353632
0.368637
0.384229
0.400422
0.417238
0.434696
0.452814
0.471612
0.491108
0.51132
0.532267
0.553964
0.57643
0.59968
0.623731
0.648597
0.674292
0.700829
0.72822
0.756477
0.785608
0.815624
0.84653
0.878332
0.911035
0.944642
0.979154
1.01457
1.05089
1.08811
1.12623
1.16524
1.20514
1.24591
1.28756
1.33006
1.37342
1.41762
1.46263
1.50846
1.55506
1.60242
1.65051
1.69928
1.74868
1.79865
1.84914
1.90005
1.95129
2.00276
2.05432
2.10571
2.15681
2.20749
2.25761
2.30704
2.35563
2.40324
2.44972
2.49494
2.53874
2.58098
2.62155
2.6603
2.69712
2.73191
2.76456
2.79499
2.82314
2.84894
2.87238
2.89342
2.91208
2.92839
2.94238
2.95413
2.96372
2.97127
2.97688
2.98072
2.98292
2.98364
2.98306
2.98135
2.97866
2.97521
2.97115
2.96653
2.96147
2.95606
2.9504
2.94458
2.93865
2.93266
2.92663
2.92058
2.91451
2.90841
2.90224
2.89598
2.8896
2.88305
2.87615
2.86844
2.86002
2.85086
2.84087
2.82996
2.81799
2.80486
2.79038
2.77434
2.75648
2.73646
2.71392
2.68832
2.65898
2.62496
2.58643
2.54397
0.00766332
0.0134768
0.0177724
0.0212928
0.0244041
0.0272732
0.0299937
0.0326262
0.0352135
0.0377879
0.0403739
0.0429909
0.045654
0.0483753
0.0511647
0.0540302
0.056979
0.060017
0.0631498
0.0663823
0.0697193
0.0731653
0.0767246
0.0804016
0.0842009
0.0881272
0.0921855
0.0963813
0.100721
0.10521
0.109856
0.114667
0.119652
0.124819
0.130179
0.135742
0.14152
0.147525
0.153768
0.160265
0.167028
0.174071
0.181411
0.189063
0.197041
0.205364
0.214047
0.223108
0.232564
0.242432
0.252731
0.263478
0.274691
0.286387
0.298586
0.311303
0.324556
0.338364
0.352742
0.367708
0.383281
0.399479
0.416321
0.433828
0.45202
0.470919
0.490546
0.510921
0.532066
0.554001
0.576747
0.600322
0.624748
0.650042
0.676223
0.703307
0.731312
0.760252
0.790142
0.820993
0.852818
0.885625
0.919424
0.95422
0.990018
1.02682
1.06463
1.10345
1.14327
1.18409
1.22591
1.26872
1.31252
1.35729
1.40304
1.44975
1.49742
1.54603
1.59558
1.64605
1.69743
1.74969
1.8028
1.85674
1.91145
1.96688
2.02297
2.07962
2.13675
2.19426
2.25188
2.30944
2.36682
2.42387
2.48046
2.53643
2.59164
2.64593
2.69914
2.75113
2.80173
2.85078
2.89814
2.94367
2.98722
3.02868
3.06791
3.10482
3.13931
3.17131
3.20076
3.22761
3.25185
3.27348
3.29252
3.30903
3.32306
3.33471
3.34409
3.35132
3.35654
3.3599
3.36158
3.36173
3.36054
3.35816
3.35489
3.35074
3.34582
3.34024
3.3341
3.3275
3.3205
3.31314
3.30545
3.29744
3.28911
3.28044
3.27139
3.26192
3.25202
3.24161
3.2302
3.21772
3.20423
3.18969
3.17401
3.15709
3.13881
3.11908
3.09774
3.07456
3.0493
3.02163
2.99117
2.95741
2.91969
2.87703
2.82945
2.77758
0.00864446
0.0153175
0.0200854
0.0239513
0.0273523
0.030477
0.0334284
0.0362725
0.0390557
0.041813
0.0445719
0.0473541
0.0501774
0.0530562
0.0560028
0.0590274
0.0621389
0.065345
0.0686524
0.0720672
0.0755948
0.0792402
0.0830081
0.0869032
0.0909301
0.0950937
0.099399
0.103852
0.108457
0.113223
0.118156
0.123265
0.128557
0.134043
0.139732
0.145637
0.151768
0.158139
0.164762
0.171652
0.178823
0.186291
0.194071
0.202179
0.210633
0.21945
0.228647
0.238244
0.248257
0.258706
0.26961
0.280988
0.29286
0.305245
0.318162
0.331631
0.345673
0.360306
0.375553
0.391432
0.407966
0.425176
0.443084
0.461714
0.481089
0.501232
0.522167
0.543918
0.566508
0.589961
0.6143
0.639547
0.665726
0.692858
0.720964
0.750063
0.780176
0.811318
0.843507
0.876758
0.911083
0.946493
0.982999
1.02061
1.05932
1.09915
1.14009
1.18214
1.22529
1.26956
1.31492
1.36137
1.40892
1.45754
1.50724
1.558
1.60983
1.66271
1.71664
1.77161
1.82761
1.88463
1.94264
2.00161
2.06151
2.12228
2.18386
2.24616
2.30909
2.37252
2.43612
2.49979
2.56339
2.62678
2.6898
2.75232
2.81416
2.87518
2.93521
2.99407
3.05161
3.10764
3.16201
3.21454
3.2651
3.31352
3.35966
3.40341
3.44464
3.48324
3.51913
3.55223
3.58251
3.60992
3.63448
3.65619
3.67511
3.69131
3.70485
3.71586
3.72446
3.73079
3.73501
3.73727
3.73774
3.73658
3.73414
3.73047
3.72565
3.71981
3.71304
3.70544
3.69709
3.68804
3.67831
3.66791
3.65684
3.64507
3.63254
3.61924
3.60512
3.58996
3.57329
3.55525
3.53585
3.51505
3.49278
3.46893
3.44339
3.41607
3.38684
3.35549
3.32177
3.28537
3.24588
3.2029
3.15577
3.10345
3.04587
2.98429
0.00949086
0.0169377
0.022101
0.0262535
0.0298982
0.0332413
0.0363924
0.0394207
0.042375
0.0452922
0.0482014
0.0511265
0.0540871
0.0570998
0.0601789
0.0633363
0.0665827
0.0699269
0.073377
0.0769398
0.0806212
0.0844268
0.0883617
0.0924305
0.0966382
0.10099
0.10549
0.110144
0.114959
0.119942
0.125099
0.130438
0.13597
0.141702
0.147647
0.153815
0.160218
0.166869
0.173783
0.180974
0.188456
0.196247
0.204361
0.212817
0.221633
0.230825
0.240414
0.250418
0.260857
0.27175
0.28312
0.294985
0.307367
0.320288
0.333769
0.347833
0.362501
0.377797
0.393744
0.410365
0.427685
0.445729
0.464522
0.48409
0.50446
0.525657
0.547709
0.570642
0.594484
0.61926
0.644999
0.671725
0.699465
0.728244
0.758085
0.789013
0.821048
0.854212
0.888523
0.923999
0.960654
0.998502
1.03755
1.07782
1.1193
1.162
1.20592
1.25106
1.29742
1.34499
1.39376
1.44373
1.49488
1.54722
1.60073
1.6554
1.71124
1.76825
1.8264
1.88572
1.94618
2.00779
2.07052
2.13436
2.19927
2.26521
2.3321
2.39987
2.46842
2.53752
2.6069
2.67646
2.74606
2.81556
2.88482
2.95368
3.02198
3.08956
3.15625
3.22187
3.28624
3.34918
3.4105
3.47002
3.52757
3.58299
3.63611
3.68678
3.73486
3.78022
3.82272
3.86227
3.89879
3.93222
3.96253
3.98972
4.01379
4.03479
4.05277
4.06783
4.08006
4.08959
4.09656
4.10113
4.10344
4.10364
4.10208
4.09891
4.09419
4.08803
4.08054
4.07182
4.06196
4.05099
4.03897
4.02588
4.01172
3.99646
3.98004
3.96245
3.9436
3.92302
3.90056
3.87637
3.85045
3.82277
3.79324
3.76175
3.72821
3.69255
3.65463
3.61427
3.57124
3.52521
3.47571
3.42259
3.36522
3.30281
3.23506
3.16357
0.0102087
0.0183273
0.0238094
0.0281875
0.0320257
0.035545
0.0388592
0.0420397
0.0451362
0.0481867
0.0512214
0.0542655
0.0573402
0.0604638
0.0636518
0.0669177
0.0702732
0.0737282
0.0772914
0.0809702
0.0847709
0.0886995
0.0927611
0.0969607
0.101303
0.105794
0.110437
0.11524
0.120207
0.125345
0.130663
0.136168
0.141869
0.147777
0.153901
0.160253
0.166846
0.173694
0.18081
0.188208
0.195906
0.203919
0.212264
0.220959
0.230023
0.239475
0.249335
0.259622
0.270357
0.281563
0.29326
0.305472
0.318222
0.331532
0.345426
0.35993
0.375068
0.390867
0.407351
0.424548
0.442487
0.461193
0.480698
0.501028
0.522216
0.544289
0.567279
0.591216
0.616131
0.642054
0.669015
0.697046
0.726174
0.756429
0.787839
0.820431
0.854229
0.889258
0.92554
0.963094
1.00194
1.04209
1.08355
1.12634
1.17047
1.21593
1.26272
1.31085
1.3603
1.41107
1.46315
1.51652
1.57118
1.62712
1.68432
1.74279
1.80251
1.86348
1.92571
1.9892
2.05395
2.11995
2.18721
2.25569
2.32539
2.39624
2.4682
2.54117
2.61504
2.68944
2.76424
2.83932
2.91455
2.98978
3.06488
3.13969
3.21406
3.28781
3.36079
3.43281
3.50368
3.57319
3.64116
3.70739
3.77169
3.83388
3.89377
3.95121
4.00601
4.05803
4.10708
4.15305
4.19581
4.23528
4.27141
4.30415
4.33347
4.3594
4.38197
4.40122
4.41725
4.43015
4.44005
4.44708
4.45139
4.45314
4.45251
4.44989
4.4453
4.43884
4.43061
4.42072
4.40926
4.39628
4.38181
4.36586
4.34841
4.32942
4.30885
4.28667
4.26265
4.23628
4.20768
4.17696
4.1441
4.10907
4.07179
4.03216
3.99002
3.94542
3.89819
3.84816
3.79514
3.73885
3.67895
3.61526
3.54732
3.47463
3.39677
3.31539
0.0107983
0.0194846
0.0252123
0.0297557
0.0337357
0.0373854
0.0408222
0.044118
0.0473231
0.0504759
0.0536073
0.0567436
0.0599069
0.0631165
0.066389
0.0697388
0.073178
0.0767171
0.0803648
0.0841287
0.0880155
0.092031
0.0961805
0.100469
0.104902
0.109484
0.11422
0.119116
0.124179
0.129414
0.134831
0.140436
0.146238
0.152249
0.158478
0.164938
0.171641
0.1786
0.18583
0.193346
0.201165
0.209303
0.217778
0.226608
0.235812
0.245411
0.255425
0.265876
0.276786
0.288176
0.300072
0.312498
0.325477
0.339037
0.353203
0.368002
0.383463
0.399614
0.416484
0.434104
0.452505
0.471718
0.491775
0.512711
0.534557
0.557349
0.58112
0.605905
0.631739
0.658657
0.686693
0.715881
0.746256
0.77785
0.810695
0.844822
0.88026
0.917037
0.955176
0.994702
1.03563
1.07799
1.12178
1.16702
1.21371
1.26185
1.31145
1.3625
1.41499
1.4689
1.52422
1.58093
1.63903
1.69848
1.75929
1.82144
1.88493
1.94975
2.01591
2.0834
2.15224
2.22244
2.29398
2.36686
2.44107
2.51654
2.59324
2.67106
2.74976
2.82903
2.90877
2.98886
3.06917
3.14957
3.22994
3.31012
3.38996
3.4693
3.54798
3.62582
3.70263
3.77818
3.85227
3.92469
3.99525
4.06376
4.13001
4.19382
4.255
4.31338
4.36873
4.42089
4.46971
4.51508
4.55691
4.59513
4.62968
4.66055
4.68773
4.71125
4.73116
4.74755
4.76049
4.77011
4.77656
4.77998
4.78048
4.77847
4.77408
4.76737
4.75844
4.7474
4.73434
4.7193
4.70234
4.68345
4.6626
4.63976
4.61489
4.58791
4.55837
4.52605
4.4911
4.45358
4.41349
4.37078
4.32541
4.27726
4.22624
4.17232
4.1154
4.05533
3.99197
3.92513
3.8546
3.78024
3.70174
3.61888
3.53115
3.44011
0.0112627
0.0204145
0.0263197
0.0309711
0.0350413
0.0387744
0.0422899
0.0456603
0.048936
0.0521556
0.0553507
0.0585483
0.0617712
0.0650395
0.0683702
0.0717778
0.0752742
0.0788699
0.0825732
0.0863916
0.0903314
0.0943983
0.0985976
0.102934
0.107414
0.11204
0.11682
0.121758
0.12686
0.132135
0.137588
0.143229
0.149067
0.155111
0.161373
0.167865
0.174599
0.18159
0.188851
0.196398
0.204248
0.212419
0.220927
0.229793
0.239036
0.248678
0.258739
0.269242
0.280212
0.291671
0.303647
0.316164
0.32925
0.342933
0.357242
0.372208
0.38786
0.404232
0.421356
0.439265
0.457995
0.477582
0.498062
0.519472
0.54185
0.565234
0.589665
0.615179
0.641818
0.669621
0.698626
0.728872
0.760399
0.793244
0.827442
0.86303
0.900039
0.938501
0.978444
1.01989
1.06287
1.1074
1.15349
1.20115
1.25039
1.30121
1.35361
1.40757
1.46308
1.52013
1.57869
1.63873
1.70024
1.76318
1.82755
1.89333
1.9605
2.02906
2.09901
2.17036
2.24311
2.31728
2.39287
2.46987
2.54826
2.62801
2.70906
2.79125
2.8742
2.95777
3.04183
3.12627
3.21098
3.29584
3.38072
3.46551
3.55004
3.63419
3.71778
3.80066
3.88266
3.96351
4.04297
4.12088
4.19701
4.27118
4.34317
4.41277
4.47979
4.54406
4.60528
4.66323
4.71777
4.76875
4.81605
4.85956
4.8992
4.93491
4.96665
4.99442
5.01824
5.03815
5.05422
5.06655
5.07526
5.08049
5.08236
5.08104
5.07692
5.07004
5.06048
5.04835
5.03372
5.01666
4.9972
4.97535
4.95106
4.92431
4.89507
4.8631
4.82791
4.78955
4.74813
4.70367
4.65618
4.60563
4.55196
4.4951
4.43497
4.37156
4.30478
4.23454
4.16077
4.08338
4.00227
3.91738
3.82856
3.73577
3.63851
3.53817
0.0116079
0.0211269
0.0271471
0.0318536
0.0359643
0.0397334
0.0432822
0.0466836
0.0499882
0.0532352
0.056457
0.0596813
0.0629317
0.0662286
0.0695886
0.0730257
0.0765513
0.0801746
0.0839036
0.0877449
0.0917043
0.0957871
0.0999983
0.104343
0.108826
0.113451
0.118226
0.123154
0.128243
0.1335
0.138932
0.144548
0.150356
0.156368
0.162595
0.169047
0.175739
0.182685
0.189898
0.197396
0.205195
0.213313
0.221768
0.23058
0.23977
0.24936
0.259372
0.269831
0.280761
0.292188
0.30414
0.316646
0.329734
0.343436
0.357784
0.372811
0.388551
0.405041
0.422316
0.440416
0.459379
0.479246
0.500057
0.521856
0.544686
0.568589
0.593611
0.619795
0.647185
0.675827
0.705764
0.737039
0.769697
0.80378
0.839329
0.876382
0.914976
0.955146
0.996923
1.04033
1.0854
1.13215
1.18059
1.23074
1.2826
1.33616
1.39143
1.44838
1.507
1.56726
1.62911
1.69253
1.75749
1.82395
1.89188
1.96126
2.03207
2.1043
2.17794
2.253
2.32948
2.4074
2.48676
2.56757
2.64979
2.73341
2.81833
2.90417
2.99075
3.07791
3.16553
3.2535
3.34176
3.43019
3.51868
3.60713
3.69541
3.78338
3.8709
3.95785
4.0441
4.12931
4.21323
4.29571
4.37655
4.45555
4.53247
4.60711
4.67924
4.74865
4.81506
4.87826
4.93803
4.99421
5.04664
5.09516
5.13966
5.18004
5.21623
5.24818
5.27588
5.29934
5.31859
5.33371
5.34478
5.35192
5.35526
5.35489
5.35112
5.34416
5.33406
5.3209
5.30478
5.28574
5.26382
5.23902
5.2113
5.18064
5.14693
5.1098
5.06899
5.02458
4.97664
4.9252
4.87027
4.81181
4.7498
4.68419
4.61493
4.54202
4.46543
4.38513
4.30111
4.21337
4.12193
4.02683
3.92805
3.82569
3.71928
3.6101
0.0118426
0.0216354
0.0277139
0.0324272
0.0365318
0.0402906
0.0438267
0.0472136
0.0505029
0.0537349
0.0569434
0.0601571
0.0634006
0.0666936
0.0700522
0.0734888
0.0770135
0.0806341
0.0843572
0.0881885
0.0921331
0.0961956
0.100381
0.104693
0.109136
0.113717
0.118439
0.123309
0.128333
0.133518
0.138872
0.144404
0.150124
0.156041
0.162167
0.168515
0.175098
0.181929
0.189025
0.196401
0.204076
0.212066
0.220393
0.229075
0.238135
0.247595
0.25748
0.267816
0.278628
0.289945
0.301797
0.314215
0.327231
0.34088
0.355196
0.370218
0.385984
0.402533
0.419908
0.438151
0.457306
0.47742
0.49854
0.520713
0.543989
0.568416
0.594046
0.620929
0.649116
0.678653
0.709589
0.741973
0.775855
0.81128
0.848294
0.88694
0.927257
0.969281
1.01305
1.05858
1.10591
1.15505
1.20602
1.25883
1.31347
1.36995
1.42826
1.48837
1.55026
1.61388
1.67917
1.74608
1.81458
1.88463
1.95617
2.02917
2.10359
2.17942
2.25665
2.33526
2.41528
2.4967
2.57952
2.66376
2.74938
2.83634
2.92432
3.01302
3.1024
3.19231
3.28253
3.37306
3.46383
3.55477
3.64578
3.73677
3.82765
3.91829
4.00858
4.09838
4.18755
4.27584
4.36305
4.44899
4.53347
4.61627
4.69717
4.77593
4.85233
4.92611
4.99702
5.0648
5.12924
5.1901
5.2472
5.30035
5.34939
5.39419
5.43462
5.47061
5.50211
5.52907
5.55151
5.56945
5.58295
5.59209
5.597
5.59777
5.59451
5.58755
5.57699
5.5629
5.54536
5.5244
5.50007
5.47236
5.44124
5.40667
5.36845
5.32615
5.27978
5.22937
5.17498
5.11662
5.0543
4.98802
4.91776
4.84351
4.76527
4.68305
4.59688
4.5068
4.41285
4.31514
4.21378
4.1089
4.00061
3.88912
3.77403
3.65651
0.0119786
0.0219559
0.0280404
0.0327167
0.0367722
0.0404767
0.0439551
0.047282
0.0505105
0.0536834
0.056837
0.0600021
0.0632033
0.0664596
0.0697851
0.07319
0.0766822
0.0802678
0.0839518
0.0877389
0.091633
0.095638
0.099758
0.103997
0.10836
0.11285
0.117475
0.122238
0.127148
0.13221
0.137435
0.14283
0.148405
0.154172
0.160141
0.166327
0.172741
0.1794
0.186319
0.193514
0.201005
0.20881
0.216948
0.225443
0.234317
0.243593
0.253299
0.263461
0.274108
0.285272
0.296985
0.309281
0.322196
0.33577
0.350041
0.365052
0.380847
0.39747
0.414969
0.433394
0.452794
0.473222
0.494732
0.517378
0.541217
0.566304
0.592698
0.620458
0.64964
0.680294
0.712468
0.746216
0.781592
0.818648
0.857429
0.897982
0.940346
0.984557
1.03065
1.07865
1.12857
1.18044
1.23427
1.29006
1.3478
1.40748
1.4691
1.53262
1.59805
1.66527
1.73418
1.80475
1.87691
1.95062
2.02581
2.10242
2.18041
2.25975
2.3404
2.42235
2.50561
2.59017
2.67602
2.76318
2.85158
2.94095
3.03093
3.12143
3.2124
3.30373
3.39532
3.48714
3.57913
3.67125
3.76343
3.85561
3.94771
4.03964
4.13131
4.2226
4.31338
4.40347
4.49268
4.58083
4.66774
4.75318
4.83696
4.91881
4.99851
5.07579
5.15037
5.22199
5.29039
5.35533
5.41656
5.47387
5.52705
5.57592
5.62033
5.66015
5.69528
5.72564
5.7512
5.77194
5.78789
5.7991
5.80565
5.80764
5.80514
5.7983
5.78738
5.77244
5.75356
5.73077
5.7041
5.67355
5.6391
5.60065
5.55784
5.51055
5.45876
5.40251
5.34181
5.2767
5.20719
5.13329
5.05502
4.9724
4.88547
4.79428
4.69891
4.59946
4.49606
4.38887
4.27811
4.16399
4.04673
3.92663
3.80341
3.67812
0.0120301
0.0221039
0.0281436
0.0327429
0.0367105
0.040321
0.0437
0.0469232
0.0500461
0.0531159
0.0561741
0.0592541
0.0623801
0.0655682
0.0688293
0.0721705
0.0755972
0.0791137
0.0827236
0.0864301
0.0902363
0.0941455
0.0981611
0.102287
0.106527
0.110885
0.115368
0.11998
0.12473
0.129625
0.134672
0.139883
0.145267
0.150836
0.156602
0.162579
0.16878
0.175222
0.18192
0.188894
0.196162
0.203744
0.211663
0.219941
0.228604
0.237677
0.247191
0.257174
0.26766
0.278684
0.29028
0.302489
0.315353
0.328914
0.343219
0.358317
0.374258
0.391094
0.408881
0.427674
0.447533
0.468517
0.490689
0.514109
0.538843
0.564954
0.592508
0.621574
0.652229
0.684512
0.718449
0.754108
0.791547
0.830817
0.871964
0.915029
0.960049
1.00706
1.05607
1.10712
1.16021
1.21535
1.27255
1.33179
1.39307
1.45636
1.52163
1.58884
1.65794
1.72885
1.80148
1.87575
1.95158
2.0289
2.10762
2.18766
2.26897
2.35149
2.43517
2.51999
2.60592
2.69293
2.78105
2.8702
2.96012
3.05042
3.14105
3.23196
3.32311
3.41445
3.50595
3.59756
3.68927
3.78104
3.87286
3.96468
4.05646
4.14815
4.23968
4.33096
4.42189
4.51233
4.60213
4.69113
4.77914
4.86597
4.95141
5.03522
5.11714
5.19692
5.27425
5.34886
5.42046
5.48877