/*--------------------------------*- C++ -*----------------------------------*\
| =========                 |                                                 |
| \\      /  F ield         | OpenFOAM: The Open Source CFD Toolbox           |
|  \\    /   O peration     | Version:  1.4.2                                 |
|   \\  /    A nd           | Web:      http://www.openfoam.org               |
|    \\/     M anipulation  |                                                 |
\*---------------------------------------------------------------------------*/
FoamFile
{
    version     2.0;
    format      ascii;
    class       volScalarField;
    object      p;
    location    "700";
}
// * * * * * * * * * * * * * * * * * * * * * * * * * * * * * * * * * * * * * //

dimensions      [0 2 -2 0 0 0 0];

internalField   nonuniform List<scalar> 
12225
(
-6.71608
-7.55367
-7.80294
-7.90052
-8.00624
-8.10994
-8.20153
-8.28469
-8.36337
-8.43931
-8.51357
-8.58727
-8.66174
-8.73865
-8.82044
-8.91122
-9.01782
-9.167
-6.88241
-7.56082
-7.80092
-7.90211
-8.00685
-8.10885
-8.19925
-8.28148
-8.35928
-8.43436
-8.50778
-8.58065
-8.65427
-8.73027
-8.81094
-8.89998
-9.00358
-9.13764
-7.06146
-7.55678
-7.79015
-7.89981
-8.00471
-8.10528
-8.195
-8.27689
-8.35434
-8.42901
-8.50196
-8.57425
-8.64707
-8.72185
-8.80043
-8.88526
-8.97857
-9.08197
-7.21861
-7.57435
-7.79305
-7.90708
-8.01043
-8.10852
-8.19687
-8.27801
-8.35484
-8.4289
-8.5012
-8.57271
-8.64445
-8.71754
-8.7932
-8.8726
-8.95542
-9.03864
-7.34844
-7.60573
-7.80366
-7.91825
-8.01921
-8.11442
-8.20098
-8.2809
-8.35668
-8.42971
-8.50094
-8.5712
-8.6413
-8.71203
-8.78399
-8.85732
-8.93039
-8.99888
-7.46149
-7.64545
-7.81921
-7.93127
-8.02909
-8.12121
-8.20578
-8.28434
-8.35893
-8.43079
-8.50073
-8.56947
-8.63758
-8.70553
-8.77343
-8.84074
-8.90538
-8.96335
-7.56171
-7.69098
-7.83947
-7.94615
-8.0399
-8.1284
-8.21053
-8.28739
-8.36054
-8.431
-8.49944
-8.56638
-8.63221
-8.69709
-8.76079
-8.82243
-8.88
-8.93033
-7.63782
-7.73277
-7.86043
-7.96054
-8.05005
-8.135
-8.21461
-8.28961
-8.36119
-8.43014
-8.497
-8.56215
-8.6258
-8.68792
-8.74811
-8.80542
-8.85812
-8.90371
-7.69879
-7.77079
-7.881
-7.97471
-8.06001
-8.14152
-8.21861
-8.29168
-8.36159
-8.42896
-8.49419
-8.55754
-8.61908
-8.67868
-8.73584
-8.78965
-8.83871
-8.88097
-7.7588
-7.8123
-7.90516
-7.99139
-8.07173
-8.14922
-8.22331
-8.29403
-8.3619
-8.42733
-8.49058
-8.55179
-8.61091
-8.66771
-8.72171
-8.7721
-8.81777
-8.85716
-7.81704
-7.8563
-7.93278
-8.01056
-8.08523
-8.15814
-8.22871
-8.29662
-8.36203
-8.42514
-8.48606
-8.54479
-8.60122
-8.65506
-8.70585
-8.75294
-8.79553
-8.83247
-7.87264
-7.90144
-7.96329
-8.03202
-8.10043
-8.16827
-8.23479
-8.29939
-8.3619
-8.4223
-8.48053
-8.5365
-8.59001
-8.64078
-8.68839
-8.73238
-8.77219
-8.80702
-7.92477
-7.94617
-7.99562
-8.05521
-8.11698
-8.17938
-8.24142
-8.30226
-8.36145
-8.41875
-8.47398
-8.52692
-8.57736
-8.62501
-8.66956
-8.71066
-8.74797
-8.78098
-7.97243
-7.98869
-8.02816
-8.07913
-8.1342
-8.19099
-8.24825
-8.30498
-8.3605
-8.4144
-8.46636
-8.51611
-8.56341
-8.60798
-8.64961
-8.68806
-8.72314
-8.75453
-8.0142
-8.02695
-8.05878
-8.10216
-8.15087
-8.20217
-8.25461
-8.30708
-8.35875
-8.40907
-8.45764
-8.50415
-8.54832
-8.58995
-8.62885
-8.6649
-8.69798
-8.72791
-8.04806
-8.05848
-8.08479
-8.12206
-8.16521
-8.21153
-8.25944
-8.30779
-8.35567
-8.40246
-8.44771
-8.49106
-8.53228
-8.57116
-8.60759
-8.64148
-8.67277
-8.70138
-8.07101
-8.07999
-8.10276
-8.13574
-8.17467
-8.217
-8.26114
-8.30592
-8.35044
-8.39405
-8.43628
-8.4768
-8.51537
-8.55183
-8.5861
-8.61812
-8.64787
-8.6753
-8.078
-8.08647
-8.10792
-8.13909
-8.17596
-8.21608
-8.25794
-8.30041
-8.34262
-8.38396
-8.42398
-8.46238
-8.49895
-8.53358
-8.56619
-8.59676
-8.62528
-8.65173
-8.06844
-8.07736
-8.09981
-8.13179
-8.16898
-8.20896
-8.25031
-8.292
-8.33323
-8.37345
-8.41227
-8.44945
-8.48482
-8.5183
-8.54985
-8.57948
-8.60718
-8.63295
-8.04633
-8.0567
-8.08229
-8.11733
-8.15671
-8.19811
-8.2403
-8.28236
-8.3236
-8.36355
-8.40194
-8.43857
-8.47333
-8.50619
-8.53713
-8.56619
-8.59337
-8.6187
-8.01419
-8.02737
-8.05852
-8.0986
-8.14155
-8.18544
-8.22936
-8.27253
-8.31438
-8.35461
-8.39302
-8.42951
-8.46404
-8.49659
-8.5272
-8.55591
-8.58275
-8.60776
-7.9732
-7.99132
-8.03102
-8.07788
-8.1253
-8.17234
-8.21852
-8.26319
-8.30599
-8.34676
-8.38546
-8.42205
-8.45655
-8.48899
-8.51943
-8.54793
-8.57454
-8.59929
-7.9236
-7.95014
-8.00202
-8.05697
-8.10927
-8.15978
-8.20843
-8.25475
-8.2986
-8.34004
-8.37913
-8.41594
-8.45054
-8.48299
-8.51336
-8.54175
-8.5682
-8.59273
-7.86476
-7.90543
-7.97366
-8.03725
-8.09431
-8.14833
-8.19946
-8.24737
-8.29225
-8.33435
-8.37387
-8.41094
-8.44568
-8.4782
-8.50859
-8.53692
-8.56325
-8.58756
-7.79543
-7.85907
-7.94787
-8.01964
-8.08094
-8.1383
-8.19173
-8.24105
-8.2868
-8.32949
-8.36939
-8.40671
-8.44162
-8.47425
-8.50471
-8.53307
-8.55935
-8.58348
-7.7138
-7.81336
-7.92613
-8.00448
-8.06918
-8.12958
-8.18502
-8.23549
-8.28196
-8.32511
-8.36534
-8.40289
-8.43798
-8.47077
-8.50138
-8.52989
-8.55626
-8.58031
-7.61638
-7.77189
-7.90958
-7.99164
-8.05891
-8.12208
-8.17927
-8.23072
-8.2778
-8.32142
-8.362
-8.39985
-8.43521
-8.46827
-8.49919
-8.52804
-8.55478
-8.57912
-7.49149
-7.74048
-7.90078
-7.98196
-8.05077
-8.11644
-8.17514
-8.22736
-8.27495
-8.31895
-8.35983
-8.39791
-8.43347
-8.46674
-8.49793
-8.52719
-8.55449
-8.57963
-7.33052
-7.72968
-7.90789
-7.98301
-8.05144
-8.11851
-8.17788
-8.23028
-8.27794
-8.32199
-8.36291
-8.40101
-8.4366
-8.46993
-8.50128
-8.53091
-8.55903
-8.58612
-7.16761
-7.71313
-7.90788
-7.98032
-8.04932
-8.11774
-8.17788
-8.23067
-8.27863
-8.32295
-8.36413
-8.40248
-8.43831
-8.47191
-8.50355
-8.53363
-8.56267
-8.59472
-9.23402
-9.2339
-9.23395
-9.23418
-9.23454
-9.235
-9.23554
-9.23614
-9.23679
-9.23749
-9.23823
-9.23902
-9.23987
-9.24081
-9.24185
-9.24299
-9.24423
-9.2456
-9.24711
-9.24876
-9.25058
-9.25256
-9.25472
-9.25707
-9.25962
-9.26237
-9.26535
-9.26856
-9.27201
-9.27571
-9.27967
-9.28391
-9.28843
-9.29324
-9.29836
-9.3038
-9.30957
-9.31568
-9.32216
-9.329
-9.33623
-9.34386
-9.35189
-9.36035
-9.36924
-9.37857
-9.38837
-9.39863
-9.40936
-9.42058
-9.4323
-9.44451
-9.45721
-9.47042
-9.48413
-9.49833
-9.51304
-9.52824
-9.54391
-9.56005
-9.57669
-9.59398
-9.6121
-9.63097
-9.6502
-9.66961
-9.68927
-9.7092
-9.72936
-9.74973
-9.77024
-9.79085
-9.8115
-9.8321
-9.8526
-9.8729
-9.8929
-9.91252
-9.93163
-9.95012
-9.96785
-9.98468
-10.0005
-10.015
-10.0282
-10.0399
-10.0498
-10.0577
-10.0635
-10.0668
-10.0675
-10.0653
-10.0599
-10.051
-10.0383
-10.0215
-10.0002
-9.97413
-9.94291
-9.90617
-9.86356
-9.81471
-9.75927
-9.69688
-9.62724
-9.55005
-9.46504
-9.37202
-9.27081
-9.16132
-9.04347
-8.91722
-8.78263
-8.63986
-8.48919
-8.33095
-8.16556
-7.99348
-7.81525
-7.63147
-7.44279
-7.24991
-7.05358
-6.85456
-6.65367
-6.45173
-6.24958
-6.04807
-5.84802
-5.65023
-5.4555
-5.26456
-5.07811
-4.89679
-4.72119
-4.55182
-4.3891
-4.23336
-4.08486
-3.94376
-3.81016
-3.68406
-3.56538
-3.45388
-3.34916
-3.25076
-3.15811
-3.07057
-2.98742
-2.90782
-2.8308
-2.75534
-2.68031
-2.60447
-2.52646
-2.44487
-2.35821
-2.26487
-2.16321
-2.05153
-1.9281
-1.7912
-1.63907
-1.46995
-1.28221
-1.0744
-0.84524
-0.593555
-0.318391
-0.0190573
0.304834
0.653376
1.02637
1.42346
1.84416
2.28753
2.75229
3.24205
3.77674
4.32198
-9.23393
-9.23385
-9.23388
-9.23407
-9.23436
-9.2347
-9.23505
-9.23544
-9.23586
-9.23631
-9.23681
-9.23737
-9.23798
-9.23868
-9.23946
-9.24035
-9.24135
-9.24248
-9.24374
-9.24516
-9.24672
-9.24846
-9.25037
-9.25247
-9.25477
-9.25727
-9.25998
-9.26292
-9.2661
-9.26952
-9.2732
-9.27714
-9.28136
-9.28586
-9.29067
-9.29578
-9.30122
-9.30699
-9.31311
-9.3196
-9.32645
-9.3337
-9.34135
-9.34941
-9.35789
-9.36682
-9.37619
-9.38602
-9.39633
-9.40713
-9.41842
-9.43021
-9.44251
-9.45533
-9.46868
-9.48256
-9.49699
-9.51196
-9.52748
-9.54355
-9.56014
-9.57718
-9.59453
-9.61209
-9.63014
-9.64875
-9.66775
-9.68706
-9.70663
-9.72641
-9.74635
-9.7664
-9.78649
-9.80656
-9.82653
-9.84633
-9.86585
-9.88501
-9.9037
-9.92179
-9.93916
-9.95567
-9.97117
-9.98552
-9.99854
-10.0101
-10.0199
-10.0279
-10.0337
-10.0373
-10.0382
-10.0364
-10.0315
-10.0232
-10.0112
-9.99521
-9.97493
-9.95
-9.92008
-9.88479
-9.8438
-9.79672
-9.74321
-9.68292
-9.61552
-9.54072
-9.45824
-9.36786
-9.2694
-9.16274
-9.0478
-8.92445
-8.7927
-8.65274
-8.5048
-8.3492
-8.18632
-8.01662
-7.8406
-7.65882
-7.47192
-7.28057
-7.0855
-6.88747
-6.68725
-6.48566
-6.28353
-6.0817
-5.88099
-5.68221
-5.48615
-5.29355
-5.10513
-4.92156
-4.74343
-4.57128
-4.40558
-4.24669
-4.09491
-3.95044
-3.81341
-3.6839
-3.56186
-3.44712
-3.33932
-3.23802
-3.14271
-3.05282
-2.96765
-2.88638
-2.8081
-2.7318
-2.65637
-2.58057
-2.50308
-2.42248
-2.33727
-2.24585
-2.14655
-2.03768
-1.91753
-1.78435
-1.63629
-1.47152
-1.28838
-1.0854
-0.861283
-0.614796
-0.344943
-0.0509665
0.267592
0.610871
0.978674
1.3706
1.78599
2.22365
2.68184
3.16062
3.67322
4.17715
-9.233
-9.23307
-9.23324
-9.23351
-9.2338
-9.2341
-9.23438
-9.23466
-9.23494
-9.23524
-9.23559
-9.23598
-9.23645
-9.23699
-9.23763
-9.23837
-9.23922
-9.2402
-9.24131
-9.24257
-9.24398
-9.24555
-9.2473
-9.24922
-9.25134
-9.25366
-9.25619
-9.25894
-9.26191
-9.26513
-9.2686
-9.27233
-9.27633
-9.28062
-9.2852
-9.29008
-9.29528
-9.30082
-9.30669
-9.31293
-9.31953
-9.32652
-9.3339
-9.34168
-9.34989
-9.35853
-9.36761
-9.37715
-9.38715
-9.39762
-9.40858
-9.42003
-9.43198
-9.44444
-9.4574
-9.47088
-9.48487
-9.4994
-9.51445
-9.53004
-9.54618
-9.56283
-9.57989
-9.59728
-9.61504
-9.63321
-9.65173
-9.67057
-9.68966
-9.70898
-9.72846
-9.74805
-9.76769
-9.78732
-9.80686
-9.82624
-9.84536
-9.86413
-9.88244
-9.90018
-9.91722
-9.93343
-9.94867
-9.96278
-9.97561
-9.98698
-9.99672
-10.0046
-10.0105
-10.0141
-10.0152
-10.0136
-10.0089
-10.001
-9.98955
-9.97418
-9.95462
-9.93052
-9.90155
-9.86735
-9.82758
-9.78186
-9.72984
-9.67118
-9.60555
-9.53264
-9.45218
-9.36393
-9.26769
-9.16336
-9.05077
-8.92978
-8.80038
-8.66275
-8.5171
-8.36374
-8.20302
-8.03535
-7.86123
-7.68119
-7.49584
-7.30584
-7.11187
-6.91468
-6.71504
-6.51374
-6.31161
-6.10946
-5.90811
-5.70838
-5.51106
-5.31691
-5.12665
-4.94096
-4.76048
-4.58577
-4.41732
-4.25556
-4.10081
-3.95332
-3.81327
-3.68076
-3.55583
-3.43835
-3.32801
-3.2244
-3.12707
-3.03547
-2.94893
-2.86666
-2.7878
-2.71133
-2.63615
-2.56105
-2.48469
-2.40565
-2.32245
-2.23344
-2.13694
-2.03126
-1.91473
-1.78555
-1.64172
-1.48135
-1.30287
-1.10481
-0.885768
-0.644503
-0.379971
-0.0913722
0.221789
0.559692
0.922142
1.30867
1.71853
2.15027
2.6023
3.07149
3.56954
4.04133
-9.23133
-9.23162
-9.23204
-9.23245
-9.23282
-9.23315
-9.23344
-9.23369
-9.23393
-9.23418
-9.23447
-9.23479
-9.23519
-9.23566
-9.23622
-9.23689
-9.23767
-9.23857
-9.23961
-9.24078
-9.24211
-9.2436
-9.24526
-9.2471
-9.24912
-9.25135
-9.25378
-9.25643
-9.25931
-9.26244
-9.26581
-9.26944
-9.27334
-9.27752
-9.282
-9.28679
-9.29189
-9.29732
-9.30309
-9.30922
-9.31572
-9.3226
-9.32987
-9.33755
-9.34565
-9.35418
-9.36314
-9.37256
-9.38244
-9.3928
-9.40363
-9.41495
-9.42676
-9.43907
-9.45188
-9.46519
-9.47901
-9.49334
-9.50816
-9.52349
-9.53932
-9.55563
-9.57239
-9.58957
-9.60715
-9.62511
-9.64343
-9.66207
-9.68097
-9.70011
-9.71941
-9.73884
-9.75832
-9.7778
-9.79721
-9.81645
-9.83546
-9.85413
-9.87235
-9.89002
-9.907
-9.92318
-9.9384
-9.95253
-9.96539
-9.97683
-9.98666
-9.99469
-10.0007
-10.0045
-10.0059
-10.0046
-10.0003
-9.99279
-9.98177
-9.96694
-9.94797
-9.92453
-9.89629
-9.86288
-9.82396
-9.77915
-9.7281
-9.67047
-9.6059
-9.5341
-9.45477
-9.36768
-9.27263
-9.16948
-9.058
-8.93802
-8.80961
-8.67292
-8.52816
-8.3756
-8.2156
-8.04855
-7.87492
-7.69526
-7.51015
-7.32024
-7.12621
-6.9288
-6.72876
-6.52691
-6.32406
-6.12103
-5.91865
-5.71774
-5.51911
-5.32354
-5.13176
-4.94448
-4.76235
-4.58596
-4.41584
-4.25243
-4.09609
-3.9471
-3.80564
-3.67186
-3.54579
-3.42735
-3.31629
-3.21219
-3.1146
-3.02298
-2.93667
-2.85491
-2.7768
-2.70136
-2.62747
-2.55391
-2.47933
-2.40231
-2.32136
-2.2348
-2.14093
-2.03811
-1.92466
-1.79866
-1.65796
-1.50077
-1.32563
-1.13101
-0.915473
-0.677757
-0.416784
-0.131747
0.177854
0.512206
0.871097
1.25397
1.66004
2.08764
2.53554
2.99834
3.49117
3.94343
-9.22913
-9.22969
-9.23042
-9.23106
-9.23157
-9.23199
-9.23233
-9.23263
-9.23291
-9.23318
-9.23347
-9.2338
-9.23418
-9.23464
-9.23517
-9.23581
-9.23656
-9.23742
-9.23841
-9.23955
-9.24083
-9.24227
-9.24388
-9.24566
-9.24764
-9.24981
-9.25219
-9.25479
-9.25761
-9.26068
-9.264
-9.26757
-9.27142
-9.27555
-9.27997
-9.2847
-9.28974
-9.29511
-9.30083
-9.30689
-9.31333
-9.32014
-9.32735
-9.33496
-9.34298
-9.35143
-9.36032
-9.36966
-9.37945
-9.38971
-9.40045
-9.41167
-9.42338
-9.43558
-9.44828
-9.46147
-9.47517
-9.48936
-9.50406
-9.51925
-9.53493
-9.55108
-9.5677
-9.58475
-9.60221
-9.62006
-9.63828
-9.65681
-9.67562
-9.69466
-9.71388
-9.73324
-9.75266
-9.77209
-9.79145
-9.81067
-9.82967
-9.84833
-9.86657
-9.88427
-9.90131
-9.91756
-9.93288
-9.94712
-9.96013
-9.97173
-9.98176
-9.99003
-9.99632
-10.0004
-10.0022
-10.0012
-9.99738
-9.99036
-9.97988
-9.96562
-9.94728
-9.92451
-9.89698
-9.86432
-9.82617
-9.78217
-9.73193
-9.67512
-9.61137
-9.54037
-9.46182
-9.37546
-9.28111
-9.1786
-9.06759
-8.94794
-8.81979
-8.68328
-8.5386
-8.38604
-8.22591
-8.05862
-7.88465
-7.70451
-7.5188
-7.32817
-7.13329
-6.93492
-6.73382
-6.5308
-6.32669
-6.12233
-5.91857
-5.71624
-5.51617
-5.31915
-5.12596
-4.93731
-4.75388
-4.57628
-4.40506
-4.24068
-4.08353
-3.93391
-3.792
-3.65793
-3.53174
-3.4134
-3.30269
-3.1992
-3.10245
-3.01188
-2.92683
-2.84653
-2.7701
-2.69652
-2.62466
-2.55328
-2.48104
-2.4065
-2.32813
-2.24424
-2.15314
-2.05322
-1.94276
-1.8196
-1.68156
-1.52709
-1.35475
-1.16293
-0.950195
-0.715242
-0.456973
-0.174584
0.132416
0.464213
0.820564
1.20083
1.60425
2.02892
2.47408
2.93243
3.4245
3.86411
-9.22672
-9.22753
-9.22858
-9.22946
-9.23014
-9.23069
-9.23114
-9.23154
-9.2319
-9.23224
-9.23259
-9.23297
-9.23339
-9.23386
-9.23442
-9.23506
-9.23581
-9.23667
-9.23765
-9.23877
-9.24004
-9.24146
-9.24305
-9.24482
-9.24677
-9.24892
-9.25129
-9.25387
-9.25667
-9.25972
-9.26302
-9.26658
-9.27041
-9.27452
-9.27892
-9.28363
-9.28865
-9.294
-9.29969
-9.30574
-9.31215
-9.31893
-9.32611
-9.33368
-9.34167
-9.35009
-9.35894
-9.36824
-9.37799
-9.38821
-9.3989
-9.41008
-9.42174
-9.43388
-9.44653
-9.45967
-9.47331
-9.48745
-9.50209
-9.51722
-9.53284
-9.54894
-9.56551
-9.58251
-9.59994
-9.61776
-9.63594
-9.65445
-9.67325
-9.69228
-9.71151
-9.73088
-9.75033
-9.76979
-9.7892
-9.80849
-9.82755
-9.8463
-9.86465
-9.88247
-9.89964
-9.91605
-9.93154
-9.94598
-9.95921
-9.97106
-9.98136
-9.98993
-9.99656
-10.001
-10.0032
-10.0027
-9.99929
-9.99279
-9.98286
-9.96919
-9.95147
-9.92935
-9.90249
-9.87051
-9.83306
-9.78974
-9.74017
-9.684
-9.62085
-9.5504
-9.47233
-9.38639
-9.29237
-9.19003
-9.07897
-8.95913
-8.83071
-8.69383
-8.54867
-8.39551
-8.23467
-8.06657
-7.89166
-7.71048
-7.52362
-7.33172
-7.1355
-6.9357
-6.7331
-6.52854
-6.32286
-6.11691
-5.91156
-5.70768
-5.50611
-5.30766
-5.11313
-4.92327
-4.73876
-4.56024
-4.38826
-4.22332
-4.06581
-3.91604
-3.77422
-3.64043
-3.51472
-3.39706
-3.28732
-3.18508
-3.08981
-3.00094
-2.91779
-2.83957
-2.76539
-2.69422
-2.62491
-2.55619
-2.48672
-2.41504
-2.33957
-2.25861
-2.1705
-2.07369
-1.96626
-1.84576
-1.71027
-1.55846
-1.38877
-1.19956
-0.989365
-0.756874
-0.50096
-0.220828
0.083994
0.413695
0.767995
1.14619
1.54759
1.97009
2.41336
2.86847
3.36161
3.79222
-9.22435
-9.22536
-9.22671
-9.22783
-9.22869
-9.22939
-9.22998
-9.2305
-9.23097
-9.23141
-9.23185
-9.2323
-9.23278
-9.23331
-9.23391
-9.23459
-9.23536
-9.23624
-9.23723
-9.23836
-9.23964
-9.24107
-9.24267
-9.24444
-9.2464
-9.24857
-9.25094
-9.25353
-9.25634
-9.2594
-9.26271
-9.26628
-9.27012
-9.27424
-9.27865
-9.28337
-9.2884
-9.29376
-9.29945
-9.3055
-9.31191
-9.3187
-9.32587
-9.33345
-9.34144
-9.34985
-9.3587
-9.36799
-9.37774
-9.38795
-9.39864
-9.40981
-9.42146
-9.43361
-9.44625
-9.45939
-9.47303
-9.48717
-9.50182
-9.51696
-9.53259
-9.54871
-9.56529
-9.58232
-9.59977
-9.61763
-9.63585
-9.65441
-9.67326
-9.69236
-9.71166
-9.73112
-9.75066
-9.77023
-9.78976
-9.80918
-9.82839
-9.8473
-9.86582
-9.88383
-9.90121
-9.91784
-9.93358
-9.94828
-9.96179
-9.97396
-9.98459
-9.99351
-10.0005
-10.0054
-10.008
-10.008
-10.0051
-9.99913
-9.98977
-9.9767
-9.95959
-9.9381
-9.91187
-9.88052
-9.84368
-9.80094
-9.75193
-9.69624
-9.63351
-9.56339
-9.48556
-9.39977
-9.3058
-9.20316
-9.09155
-8.97113
-8.84202
-8.70432
-8.55823
-8.40402
-8.24203
-8.07266
-7.89637
-7.71372
-7.52529
-7.33176
-7.13383
-6.93227
-6.72789
-6.52154
-6.31407
-6.10637
-5.89933
-5.69384
-5.49074
-5.2909
-5.09512
-4.90417
-4.71876
-4.53954
-4.36707
-4.20186
-4.04431
-3.89475
-3.75339
-3.6203
-3.49547
-3.3789
-3.27052
-3.16999
-3.07666
-2.98995
-2.90915
-2.83347
-2.76197
-2.69363
-2.62726
-2.56158
-2.49523
-2.42673
-2.35443
-2.27664
-2.19179
-2.09827
-1.99381
-1.87591
-1.74305
-1.59392
-1.42685
-1.24016
-1.03238
-0.802196
-0.548428
-0.270308
0.0326171
0.360537
0.713118
1.08963
1.48957
1.91053
2.35246
2.80549
3.30036
3.72454
-9.22224
-9.22342
-9.22501
-9.22634
-9.22737
-9.22822
-9.22894
-9.22959
-9.23017
-9.23072
-9.23125
-9.23179
-9.23235
-9.23295
-9.2336
-9.23433
-9.23514
-9.23605
-9.23708
-9.23824
-9.23955
-9.24101
-9.24263
-9.24443
-9.24643
-9.24862
-9.25102
-9.25364
-9.25649
-9.25958
-9.26292
-9.26652
-9.27039
-9.27454
-9.27899
-9.28373
-9.28879
-9.29418
-9.2999
-9.30598
-9.31242
-9.31923
-9.32643
-9.33403
-9.34204
-9.35047
-9.35934
-9.36866
-9.37843
-9.38867
-9.39938
-9.41058
-9.42227
-9.43445
-9.44712
-9.46031
-9.47399
-9.48819
-9.50289
-9.51809
-9.53378
-9.54996
-9.56661
-9.58371
-9.60125
-9.61919
-9.63751
-9.65617
-9.67513
-9.69436
-9.71379
-9.73338
-9.75308
-9.77281
-9.79252
-9.81212
-9.83153
-9.85066
-9.8694
-9.88766
-9.9053
-9.92221
-9.93824
-9.95326
-9.96711
-9.97962
-9.99063
-9.99996
-10.0074
-10.0127
-10.0158
-10.0162
-10.0139
-10.0085
-9.99972
-9.98724
-9.97074
-9.94986
-9.92422
-9.89346
-9.85716
-9.81493
-9.76634
-9.71101
-9.64854
-9.57856
-9.50076
-9.41487
-9.32061
-9.21729
-9.10479
-8.98343
-8.85325
-8.71437
-8.56698
-8.41135
-8.24783
-8.07683
-7.89882
-7.71436
-7.52405
-7.32857
-7.12866
-6.9251
-6.71873
-6.51039
-6.301
-6.09144
-5.88264
-5.67549
-5.47089
-5.26969
-5.07274
-4.88083
-4.69467
-4.51494
-4.3422
-4.17697
-4.01965
-3.8706
-3.73001
-3.59796
-3.47438
-3.35923
-3.25254
-3.15404
-3.06305
-2.97888
-2.90081
-2.82803
-2.75959
-2.69442
-2.63132
-2.569
-2.50606
-2.44099
-2.3721
-2.29772
-2.21637
-2.12624
-2.02461
-1.90935
-1.77926
-1.63285
-1.46837
-1.28417
-1.07874
-0.85075
-0.598958
-0.322619
-0.0213367
0.305076
0.656194
1.03132
1.43031
1.85036
2.29142
2.7432
3.23978
3.66039
-9.22059
-9.22188
-9.22365
-9.22514
-9.22631
-9.22728
-9.22812
-9.22887
-9.22955
-9.23019
-9.23081
-9.23143
-9.23206
-9.23272
-9.23344
-9.23422
-9.23508
-9.23604
-9.23712
-9.23833
-9.23967
-9.24118
-9.24285
-9.2447
-9.24674
-9.24898
-9.25143
-9.25409
-9.25699
-9.26013
-9.26352
-9.26717
-9.27109
-9.27529
-9.27978
-9.28457
-9.28968
-9.29511
-9.30088
-9.307
-9.31348
-9.32034
-9.32758
-9.33522
-9.34328
-9.35175
-9.36067
-9.37003
-9.37985
-9.39014
-9.40091
-9.41216
-9.42391
-9.43615
-9.4489
-9.46216
-9.47592
-9.4902
-9.50499
-9.52028
-9.53608
-9.55236
-9.56912
-9.58634
-9.604
-9.62207
-9.64053
-9.65933
-9.67845
-9.69784
-9.71744
-9.73722
-9.75711
-9.77705
-9.79697
-9.8168
-9.83645
-9.85583
-9.87484
-9.89338
-9.91132
-9.92854
-9.94491
-9.96027
-9.97449
-9.98739
-9.9988
-10.0085
-10.0164
-10.0222
-10.0258
-10.0268
-10.025
-10.0201
-10.0119
-10
-9.98408
-9.96378
-9.93871
-9.90847
-9.87265
-9.83083
-9.78258
-9.72747
-9.6651
-9.5951
-9.51713
-9.43098
-9.33596
-9.23153
-9.1179
-8.9953
-8.86374
-8.72335
-8.57435
-8.41699
-8.25164
-8.07871
-7.89869
-7.71215
-7.5197
-7.32204
-7.11993
-6.91417
-6.70563
-6.49519
-6.28376
-6.07228
-5.86168
-5.65288
-5.44679
-5.24431
-5.04629
-4.85353
-4.66679
-4.48674
-4.31395
-4.14894
-3.99212
-3.84385
-3.70434
-3.57364
-3.45167
-3.33829
-3.23355
-3.13736
-3.04904
-2.96776
-2.89277
-2.82322
-2.75814
-2.69644
-2.63689
-2.57819
-2.51891
-2.45748
-2.39219
-2.32145
-2.24379
-2.15695
-2.05808
-1.94557
-1.81834
-1.67465
-1.51276
-1.331
-1.12783
-0.901984
-0.652038
-0.377262
-0.0773887
0.247753
0.597648
0.971561
1.36969
1.78936
2.2306
2.68216
3.1797
3.59794
-9.21947
-9.22083
-9.2227
-9.2243
-9.22556
-9.22662
-9.22754
-9.22837
-9.22914
-9.22985
-9.23053
-9.23121
-9.2319
-9.23261
-9.23338
-9.23421
-9.23512
-9.23614
-9.23727
-9.23853
-9.23994
-9.2415
-9.24323
-9.24514
-9.24724
-9.24954
-9.25205
-9.25478
-9.25774
-9.26094
-9.26439
-9.26811
-9.27209
-9.27635
-9.2809
-9.28575
-9.29092
-9.29641
-9.30224
-9.30841
-9.31495
-9.32187
-9.32917
-9.33687
-9.34498
-9.35352
-9.3625
-9.37193
-9.38182
-9.39218
-9.40302
-9.41435
-9.42618
-9.43851
-9.45135
-9.46471
-9.47858
-9.49297
-9.50788
-9.52329
-9.53922
-9.55563
-9.57254
-9.5899
-9.60772
-9.62595
-9.64457
-9.66355
-9.68286
-9.70243
-9.72224
-9.74223
-9.76234
-9.78252
-9.80268
-9.82276
-9.84268
-9.86234
-9.88165
-9.90049
-9.91875
-9.9363
-9.95301
-9.96874
-9.98333
-9.99663
-10.0085
-10.0186
-10.027
-10.0333
-10.0373
-10.0388
-10.0375
-10.0332
-10.0255
-10.0142
-9.99881
-9.97905
-9.95449
-9.92472
-9.8893
-9.8478
-9.79976
-9.74475
-9.68233
-9.61211
-9.53384
-9.44708
-9.35085
-9.24497
-9.12996
-9.00582
-8.8726
-8.73044
-8.57954
-8.42019
-8.25274
-8.07763
-7.89535
-7.7065
-7.5117
-7.31166
-7.10718
-6.89909
-6.68827
-6.47563
-6.26211
-6.04867
-5.83629
-5.62588
-5.41838
-5.2147
-5.01574
-4.8223
-4.63517
-4.45501
-4.28242
-4.11789
-3.96185
-3.81465
-3.67651
-3.54749
-3.42746
-3.31623
-3.21376
-3.12011
-3.03474
-2.95667
-2.88506
-2.81904
-2.75759
-2.69961
-2.64386
-2.58899
-2.53356
-2.47592
-2.41438
-2.34748
-2.27354
-2.18977
-2.09365
-1.98406
-1.8597
-1.71873
-1.55938
-1.37997
-1.17899
-0.955208
-0.707193
-0.433973
-0.135451
0.188541
0.537626
0.910964
1.3084
1.72773
2.16941
2.6217
3.12025
3.53731
-9.21891
-9.22026
-9.22217
-9.22383
-9.22514
-9.22625
-9.22723
-9.22811
-9.22892
-9.22968
-9.2304
-9.23111
-9.23183
-9.23259
-9.23339
-9.23426
-9.23522
-9.23629
-9.23747
-9.23879
-9.24026
-9.24189
-9.24369
-9.24567
-9.24784
-9.25021
-9.25279
-9.2556
-9.25863
-9.26191
-9.26543
-9.26922
-9.27327
-9.2776
-9.28222
-9.28715
-9.29238
-9.29795
-9.30384
-9.31009
-9.3167
-9.32368
-9.33105
-9.33883
-9.34701
-9.35563
-9.36469
-9.37419
-9.38417
-9.39461
-9.40555
-9.41697
-9.4289
-9.44134
-9.4543
-9.46777
-9.48177
-9.49629
-9.51133
-9.52689
-9.54296
-9.55954
-9.5766
-9.59414
-9.61213
-9.63054
-9.64936
-9.66853
-9.68804
-9.70783
-9.72786
-9.74808
-9.76843
-9.78885
-9.80927
-9.82962
-9.84981
-9.86976
-9.88936
-9.9085
-9.92708
-9.94496
-9.96202
-9.9781
-9.99307
-10.0068
-10.019
-10.0296
-10.0383
-10.0451
-10.0496
-10.0515
-10.0508
-10.047
-10.0398
-10.029
-10.0141
-9.99482
-9.9707
-9.94132
-9.90621
-9.86492
-9.81697
-9.7619
-9.69925
-9.6287
-9.54994
-9.46193
-9.36399
-9.25655
-9.13988
-9.01394
-8.8788
-8.7346
-8.58156
-8.41997
-8.25019
-8.07268
-7.88796
-7.69662
-7.4993
-7.29673
-7.08975
-6.87923
-6.66605
-6.45117
-6.23556
-6.0202
-5.80612
-5.59421
-5.38538
-5.18064
-4.9809
-4.787
-4.5997
-4.41968
-4.24755
-4.0838
-3.92885
-3.78304
-3.64658
-3.51955
-3.4018
-3.29309
-3.19327
-3.10238
-3.02014
-2.94559
-2.87766
-2.81543
-2.75788
-2.70385
-2.65209
-2.60124
-2.54979
-2.49606
-2.43845
-2.37554
-2.30519
-2.22431
-2.13106
-2.02453
-1.90308
-1.76484
-1.60803
-1.43097
-1.23212
-1.0102
-0.763983
-0.492368
-0.195153
0.127827
0.476289
0.849426
1.24675
1.66613
2.1084
2.56185
3.0615
3.4786
-9.21885
-9.22017
-9.22205
-9.22372
-9.22504
-9.22617
-9.22717
-9.22807
-9.22889
-9.22966
-9.23039
-9.23111
-9.23184
-9.2326
-9.23342
-9.23432
-9.23532
-9.23643
-9.23767
-9.23905
-9.24059
-9.24228
-9.24415
-9.24621
-9.24846
-9.25091
-9.25357
-9.25646
-9.25958
-9.26293
-9.26654
-9.2704
-9.27454
-9.27895
-9.28365
-9.28865
-9.29397
-9.29961
-9.30558
-9.3119
-9.31859
-9.32565
-9.33311
-9.34096
-9.34923
-9.35794
-9.36708
-9.37668
-9.38675
-9.3973
-9.40834
-9.41988
-9.43192
-9.44448
-9.45756
-9.47117
-9.48531
-9.49997
-9.51516
-9.53088
-9.54712
-9.56386
-9.5811
-9.59882
-9.61699
-9.6356
-9.65462
-9.674
-9.69372
-9.71373
-9.73399
-9.75444
-9.77503
-9.79569
-9.81636
-9.83696
-9.85742
-9.87763
-9.8975
-9.91693
-9.9358
-9.95399
-9.97136
-9.98777
-10.0031
-10.0171
-10.0297
-10.0407
-10.0498
-10.0569
-10.0618
-10.0642
-10.0639
-10.0605
-10.0538
-10.0434
-10.029
-10.0101
-9.98636
-9.95726
-9.92235
-9.88114
-9.83313
-9.77781
-9.7148
-9.64376
-9.56394
-9.47408
-9.37419
-9.26497
-9.14637
-9.01838
-8.88109
-8.73463
-8.57923
-8.4152
-8.24291
-8.06283
-7.87551
-7.68158
-7.48163
-7.27642
-7.06687
-6.85387
-6.63833
-6.42123
-6.20357
-5.98637
-5.77068
-5.55734
-5.34727
-5.14158
-4.94123
-4.74703
-4.55976
-4.38012
-4.2087
-4.04601
-3.89245
-3.74835
-3.61392
-3.48922
-3.37413
-3.26838
-3.17166
-3.08387
-3.00497
-2.93418
-2.87026
-2.81214
-2.75876
-2.70894
-2.66141
-2.61477
-2.56745
-2.5178
-2.46434
-2.40546
-2.33839
-2.26039
-2.17026
-2.06684
-1.94832
-1.81281
-1.65852
-1.48376
-1.28695
-1.06678
-0.822064
-0.551783
-0.25562
0.0666108
0.414654
0.787757
1.18527
1.60509
2.04813
2.50302
3.00366
3.42195
-9.21925
-9.22049
-9.22231
-9.22394
-9.22525
-9.22636
-9.22734
-9.22822
-9.22902
-9.22976
-9.23047
-9.23116
-9.23187
-9.23262
-9.23345
-9.23436
-9.23539
-9.23654
-9.23782
-9.23926
-9.24086
-9.24262
-9.24457
-9.2467
-9.24903
-9.25157
-9.25432
-9.25729
-9.26049
-9.26394
-9.26763
-9.27158
-9.2758
-9.2803
-9.28508
-9.29017
-9.29557
-9.30129
-9.30735
-9.31376
-9.32053
-9.32768
-9.33522
-9.34316
-9.35153
-9.36032
-9.36957
-9.37927
-9.38945
-9.40011
-9.41126
-9.42292
-9.43509
-9.44778
-9.461
-9.47475
-9.48903
-9.50385
-9.5192
-9.53508
-9.55149
-9.5684
-9.58582
-9.60372
-9.62209
-9.64089
-9.6601
-9.67969
-9.69961
-9.71983
-9.74029
-9.76095
-9.78175
-9.80263
-9.82351
-9.84433
-9.865
-9.88543
-9.90553
-9.92519
-9.94429
-9.96271
-9.98033
-9.99699
-10.0126
-10.0269
-10.0397
-10.051
-10.0605
-10.0679
-10.0731
-10.0759
-10.0759
-10.0729
-10.0665
-10.0565
-10.0424
-10.0238
-10.0003
-9.97133
-9.93648
-9.8952
-9.84695
-9.79127
-9.72781
-9.65591
-9.57401
-9.48177
-9.37998
-9.26875
-9.14801
-9.01778
-8.87814
-8.72925
-8.57134
-8.40471
-8.22977
-8.04699
-7.85698
-7.6604
-7.45776
-7.24983
-7.03764
-6.8221
-6.60415
-6.3848
-6.16507
-5.946
-5.72864
-5.51391
-5.30281
-5.09642
-4.89565
-4.70139
-4.51441
-4.33543
-4.16503
-4.00374
-3.85194
-3.70993
-3.57792
-3.45596
-3.34396
-3.2416
-3.14849
-3.06431
-2.98898
-2.92211
-2.86251
-2.80883
-2.75993
-2.7146
-2.67153
-2.62928
-2.58626
-2.5409
-2.49174
-2.43669
-2.37263
-2.29762
-2.21075
-2.11043
-1.99478
-1.86191
-1.71001
-1.5374
-1.34247
-1.12389
-0.880482
-0.611296
-0.315935
0.00578136
0.353608
0.726832
1.12474
1.54527
1.98922
2.44574
2.94716
3.36768
-9.22003
-9.22119
-9.22291
-9.22448
-9.22574
-9.2268
-9.22773
-9.22855
-9.22929
-9.22996
-9.2306
-9.23123
-9.2319
-9.23262
-9.23343
-9.23434
-9.23538
-9.23656
-9.23788
-9.23937
-9.24102
-9.24285
-9.24487
-9.24708
-9.2495
-9.25212
-9.25496
-9.25802
-9.26132
-9.26485
-9.26864
-9.27268
-9.27699
-9.28158
-9.28645
-9.29162
-9.29711
-9.30291
-9.30906
-9.31555
-9.32241
-9.32965
-9.33728
-9.34532
-9.35379
-9.36268
-9.37203
-9.38185
-9.39213
-9.40291
-9.41418
-9.42597
-9.43827
-9.45109
-9.46445
-9.47835
-9.49278
-9.50775
-9.52326
-9.5393
-9.55587
-9.57295
-9.59054
-9.60861
-9.62714
-9.64612
-9.6655
-9.68526
-9.70535
-9.72573
-9.74635
-9.76716
-9.78811
-9.80913
-9.83015
-9.8511
-9.87189
-9.89245
-9.91266
-9.93244
-9.95167
-9.97022
-9.98796
-10.0048
-10.0205
-10.0349
-10.048
-10.0594
-10.069
-10.0767
-10.0821
-10.085
-10.0853
-10.0825
-10.0764
-10.0666
-10.0527
-10.0343
-10.0109
-9.982
-9.94706
-9.90554
-9.85694
-9.80085
-9.73661
-9.66259
-9.57797
-9.48362
-9.37984
-9.26645
-9.14346
-9.01087
-8.86878
-8.71733
-8.55676
-8.38741
-8.20967
-8.02405
-7.83115
-7.63163
-7.42617
-7.21552
-7.00065
-6.78252
-6.56213
-6.34051
-6.11873
-5.89785
-5.67893
-5.46301
-5.25111
-5.04426
-4.84341
-4.64943
-4.46312
-4.28519
-4.11625
-3.95678
-3.80717
-3.6677
-3.53855
-3.41976
-3.31124
-3.21269
-3.12363
-3.04356
-2.9722
-2.90937
-2.85421
-2.80524
-2.76108
-2.72046
-2.68204
-2.64432
-2.60575
-2.56486
-2.51993
-2.46824
-2.40712
-2.33535
-2.25174
-2.15445
-2.04157
-1.91121
-1.76155
-1.5909
-1.39766
-1.18049
-0.938211
-0.669902
-0.375127
-0.0537179
0.294086
0.667597
1.06605
1.48745
1.93241
2.39068
2.89264
3.31625
-9.22114
-9.22223
-9.22385
-9.22533
-9.22651
-9.22748
-9.22832
-9.22904
-9.22966
-9.23022
-9.23075
-9.23129
-9.23188
-9.23255
-9.23332
-9.23423
-9.23527
-9.23646
-9.23781
-9.23934
-9.24104
-9.24294
-9.24502
-9.24731
-9.24981
-9.25252
-9.25545
-9.25861
-9.262
-9.26563
-9.26951
-9.27364
-9.27804
-9.28272
-9.28768
-9.29294
-9.29851
-9.30441
-9.31064
-9.31722
-9.32416
-9.33149
-9.33922
-9.34735
-9.35592
-9.36492
-9.37437
-9.3843
-9.3947
-9.40559
-9.41698
-9.42889
-9.44132
-9.45428
-9.46777
-9.4818
-9.49637
-9.51148
-9.52712
-9.5433
-9.56
-9.57721
-9.59492
-9.61311
-9.63176
-9.65085
-9.67033
-9.69018
-9.71036
-9.7308
-9.75147
-9.77232
-9.79329
-9.81431
-9.83533
-9.85625
-9.87702
-9.89753
-9.9177
-9.93743
-9.95661
-9.97511
-9.9928
-10.0096
-10.0252
-10.0397
-10.0527
-10.0642
-10.0738
-10.0815
-10.087
-10.0901
-10.0904
-10.0878
-10.0818
-10.0722
-10.0584
-10.0401
-10.0167
-9.98776
-9.95264
-9.91087
-9.86196
-9.80515
-9.73874
-9.66163
-9.57453
-9.47809
-9.37218
-9.25659
-9.13128
-8.99625
-8.8516
-8.6975
-8.53417
-8.36198
-8.18133
-7.99274
-7.79683
-7.59429
-7.38589
-7.17243
-6.95487
-6.73419
-6.51142
-6.28764
-6.06395
-5.84144
-5.62122
-5.40436
-5.19193
-4.98493
-4.78433
-4.59102
-4.40578
-4.22933
-4.06226
-3.90505
-3.75808
-3.6216
-3.49575
-3.38056
-3.27592
-3.18154
-3.09692
-3.02144
-2.95459
-2.89602
-2.84528
-2.80112
-2.7619
-2.72617
-2.69251
-2.65945
-2.62548
-2.58908
-2.54796
-2.49926
-2.44123
-2.37285
-2.29241
-2.19802
-2.08777
-1.95975
-1.81215
-1.64327
-1.45152
-1.23553
-0.994181
-0.726538
-0.432148
-0.110857
0.237097
0.611043
1.01017
1.43253
1.87855
2.33861
2.84082
3.26826
-9.22258
-9.22362
-9.22516
-9.22655
-9.22761
-9.22845
-9.22913
-9.22968
-9.23014
-9.23052
-9.23089
-9.2313
-9.23179
-9.23238
-9.23311
-9.23398
-9.235
-9.23619
-9.23756
-9.23912
-9.24086
-9.24281
-9.24496
-9.24732
-9.2499
-9.25271
-9.25573
-9.25899
-9.26248
-9.26621
-9.27018
-9.27441
-9.27891
-9.28367
-9.28873
-9.29407
-9.29973
-9.3057
-9.31201
-9.31868
-9.32571
-9.33312