/*--------------------------------*- C++ -*----------------------------------*\
| =========                 |                                                 |
| \\      /  F ield         | OpenFOAM: The Open Source CFD Toolbox           |
|  \\    /   O peration     | Version:  1.4.2                                 |
|   \\  /    A nd           | Web:      http://www.openfoam.org               |
|    \\/     M anipulation  |                                                 |
\*---------------------------------------------------------------------------*/
FoamFile
{
    version     2.0;
    format      ascii;
    class       surfaceScalarField;
    object      phi;
    location    "700";
}
// * * * * * * * * * * * * * * * * * * * * * * * * * * * * * * * * * * * * * //

dimensions      [0 3 -1 0 0 0 0];

internalField   nonuniform List<scalar> 
24170
(
3.03918e-06
9.47103e-08
2.96659e-06
7.25927e-08
2.90197e-06
6.46219e-08
2.84074e-06
6.12326e-08
2.78297e-06
5.77663e-08
2.7289e-06
5.40671e-08
2.67846e-06
5.04439e-08
2.63148e-06
4.6976e-08
2.58783e-06
4.36563e-08
2.54735e-06
4.04772e-08
2.50992e-06
3.74341e-08
2.4754e-06
3.45161e-08
2.4437e-06
3.1702e-08
2.41475e-06
2.89525e-08
2.38856e-06
2.61901e-08
2.36532e-06
2.32357e-08
2.34558e-06
1.97405e-08
9.54666e-09
2.33603e-06
3.46199e-06
8.91631e-08
3.45386e-06
8.07236e-08
3.44442e-06
7.40674e-08
3.43379e-06
7.18592e-08
3.42224e-06
6.93151e-08
3.41017e-06
6.61402e-08
3.3978e-06
6.28159e-08
3.38527e-06
5.95027e-08
3.37271e-06
5.62139e-08
3.36024e-06
5.29522e-08
3.34795e-06
4.97195e-08
3.33597e-06
4.6504e-08
3.3244e-06
4.32721e-08
3.3134e-06
3.99526e-08
3.30319e-06
3.63983e-08
3.29414e-06
3.22828e-08
3.2871e-06
2.67765e-08
1.72261e-08
3.27943e-06
3.82433e-06
7.70296e-08
3.8263e-06
7.87487e-08
3.82561e-06
7.47651e-08
3.82406e-06
7.34081e-08
3.82188e-06
7.14887e-08
3.81926e-06
6.87649e-08
3.81633e-06
6.57423e-08
3.8132e-06
6.26326e-08
3.80994e-06
5.94784e-08
3.8066e-06
5.6294e-08
3.80323e-06
5.30837e-08
3.79991e-06
4.98318e-08
3.79668e-06
4.6493e-08
3.79366e-06
4.29769e-08
3.79095e-06
3.91122e-08
3.78866e-06
3.45745e-08
3.78666e-06
2.87712e-08
2.06616e-08
3.78322e-06
4.2169e-06
6.46905e-08
4.22212e-06
7.35248e-08
4.2243e-06
7.25845e-08
4.22556e-06
7.21482e-08
4.22628e-06
7.07721e-08
4.22659e-06
6.84555e-08
4.22663e-06
6.5705e-08
4.22649e-06
6.2766e-08
4.22626e-06
5.97143e-08
4.22597e-06
5.65809e-08
4.22568e-06
5.33761e-08
4.22543e-06
5.00851e-08
4.22526e-06
4.66611e-08
4.22522e-06
4.30134e-08
4.22535e-06
3.89859e-08
4.22559e-06
3.43283e-08
4.22565e-06
2.87107e-08
2.18494e-08
4.22447e-06
4.6487e-06
5.33006e-08
4.65545e-06
6.67752e-08
4.65932e-06
6.87118e-08
4.66212e-06
6.93458e-08
4.66433e-06
6.85692e-08
4.6661e-06
6.66793e-08
4.66759e-06
6.42189e-08
4.66889e-06
6.14672e-08
4.67007e-06
5.85325e-08
4.67119e-06
5.5464e-08
4.67228e-06
5.22814e-08
4.67339e-06
4.89755e-08
4.67455e-06
4.55057e-08
4.67576e-06
4.17948e-08
4.67703e-06
3.77222e-08
4.67823e-06
3.3126e-08
4.67907e-06
2.78675e-08
2.20007e-08
4.67892e-06
5.12456e-06
4.33396e-08
5.132e-06
5.93309e-08
5.13708e-06
6.36335e-08
5.14109e-06
6.534e-08
5.14441e-06
6.52451e-08
5.14724e-06
6.38493e-08
5.14973e-06
6.17293e-08
5.15199e-06
5.92036e-08
5.15411e-06
5.6418e-08
5.15613e-06
5.34451e-08
5.15809e-06
5.03178e-08
5.16003e-06
4.70371e-08
5.16196e-06
4.35747e-08
5.16388e-06
3.9875e-08
5.16574e-06
3.58594e-08
5.16742e-06
3.14438e-08
5.16868e-06
2.66085e-08
2.15317e-08
5.16915e-06
5.64939e-06
3.49593e-08
5.65697e-06
5.17471e-08
5.66284e-06
5.7762e-08
5.66779e-06
6.03935e-08
5.67207e-06
6.09673e-08
5.67582e-06
6.00967e-08
5.67919e-06
5.83652e-08
5.68227e-06
5.61176e-08
5.68516e-06
5.353e-08
5.68791e-06
5.06979e-08
5.69055e-06
4.76706e-08
5.69313e-06
4.44639e-08
5.69563e-06
4.10674e-08
5.69806e-06
3.74515e-08
5.70034e-06
3.35785e-08
5.70236e-06
2.94241e-08
5.70393e-06
2.50328e-08
2.06055e-08
5.70486e-06
4.4112e-06
2.98662e-08
4.41651e-06
4.64405e-08
4.42103e-06
5.32417e-08
4.42499e-06
5.64406e-08
4.42851e-06
5.74392e-08
4.43169e-06
5.69233e-08
4.43458e-06
5.54749e-08
4.43725e-06
5.34446e-08
4.43976e-06
5.10231e-08
4.44214e-06
4.83194e-08
4.44441e-06
4.5394e-08
4.4466e-06
4.22739e-08
4.44871e-06
3.89626e-08
4.45071e-06
3.54492e-08
4.45257e-06
3.17219e-08
4.4542e-06
2.77881e-08
4.45552e-06
2.37162e-08
1.96963e-08
4.45643e-06
5.1446e-06
2.51257e-08
5.15008e-06
4.09592e-08
5.15508e-06
4.82429e-08
5.15964e-06
5.18789e-08
5.16382e-06
5.32609e-08
5.16765e-06
5.30918e-08
5.17119e-06
5.19363e-08
5.17449e-06
5.0144e-08
5.1776e-06
4.79158e-08
5.18054e-06
4.53717e-08
5.18336e-06
4.25827e-08
5.18604e-06
3.95876e-08
5.1886e-06
3.64042e-08
5.19101e-06
3.30404e-08
5.19322e-06
2.95071e-08
5.19518e-06
2.58357e-08
5.19679e-06
2.21053e-08
1.84878e-08
5.198e-06
6.0001e-06
2.08152e-08
6.00563e-06
3.54367e-08
6.01099e-06
4.28748e-08
6.0161e-06
4.6774e-08
6.0209e-06
4.84571e-08
6.0254e-06
4.85989e-08
6.02961e-06
4.77261e-08
6.03357e-06
4.61795e-08
6.03732e-06
4.41639e-08
6.04089e-06
4.18069e-08
6.04428e-06
3.91888e-08
6.04751e-06
3.63594e-08
6.05056e-06
3.33502e-08
6.05342e-06
3.01859e-08
6.05603e-06
2.68954e-08
6.05834e-06
2.3525e-08
6.06029e-06
2.01547e-08
1.69326e-08
6.06185e-06
6.99811e-06
1.69718e-08
7.00355e-06
3.00012e-08
7.00917e-06
3.72507e-08
7.01473e-06
4.1219e-08
7.02009e-06
4.30877e-08
7.02522e-06
4.34757e-08
7.03009e-06
4.2855e-08
7.03472e-06
4.15465e-08
7.03913e-06
3.97527e-08
7.04334e-06
3.76045e-08
7.04734e-06
3.51888e-08
7.05113e-06
3.25649e-08
7.05471e-06
2.97758e-08
7.05803e-06
2.68593e-08
7.06107e-06
2.38563e-08
7.06378e-06
2.08198e-08
7.06611e-06
1.78238e-08
1.49903e-08
7.06805e-06
8.1624e-06
1.35822e-08
8.16765e-06
2.47568e-08
8.17342e-06
3.14825e-08
8.17932e-06
3.53156e-08
8.18518e-06
3.72336e-08
8.19087e-06
3.77808e-08
8.19636e-06
3.73634e-08
8.20164e-06
3.62719e-08
8.20669e-06
3.4699e-08
8.21152e-06
3.27742e-08
8.21612e-06
3.05878e-08
8.22048e-06
2.82052e-08
8.22458e-06
2.56777e-08
8.22839e-06
2.30512e-08
8.23187e-06
2.03725e-08
8.235e-06
1.76948e-08
8.23774e-06
1.50817e-08
1.26307e-08
8.2401e-06
9.52072e-06
1.05928e-08
9.52571e-06
1.97671e-08
9.53152e-06
2.56662e-08
9.53768e-06
2.91573e-08
9.54394e-06
3.09784e-08
9.55014e-06
3.15836e-08
9.55619e-06
3.13084e-08
9.56206e-06
3.04028e-08
9.56772e-06
2.90424e-08
9.57314e-06
2.73498e-08
9.57831e-06
2.54142e-08
9.58322e-06
2.33032e-08
9.58782e-06
2.10718e-08
9.5921e-06
1.87689e-08
9.59604e-06
1.64416e-08
9.59959e-06
1.41385e-08
9.60276e-06
1.19117e-08
9.83688e-09
9.60556e-06
1.11054e-05
7.92603e-09
1.11101e-05
1.50444e-08
1.11159e-05
1.98655e-08
1.11222e-05
2.28132e-08
1.11288e-05
2.43895e-08
1.11355e-05
2.49456e-08
1.1142e-05
2.47442e-08
1.11484e-05
2.39883e-08
1.11547e-05
2.28276e-08
1.11606e-05
2.13722e-08
1.11663e-05
1.97047e-08
1.11718e-05
1.78899e-08
1.11769e-05
1.59817e-08
1.11816e-05
1.4027e-08
1.1186e-05
1.2069e-08
1.119e-05
1.01489e-08
1.11936e-05
8.30756e-09
6.60264e-09
1.11968e-05
1.29541e-05
5.49229e-09
1.29586e-05
1.05466e-08
1.29643e-05
1.40957e-08
1.29708e-05
1.63133e-08
1.29777e-05
1.75009e-08
1.29848e-05
1.79014e-08
1.29918e-05
1.77037e-08
1.29987e-05
1.70584e-08
1.30055e-05
1.6083e-08
1.3012e-05
1.48674e-08
1.30182e-05
1.3482e-08
1.30241e-05
1.19835e-08
1.30297e-05
1.04194e-08
1.30349e-05
8.83067e-09
1.30397e-05
7.25344e-09
1.30441e-05
5.72046e-09
1.30482e-05
4.26242e-09
2.92247e-09
1.30518e-05
1.51108e-05
3.19157e-09
1.51151e-05
6.17178e-09
1.51209e-05
8.2992e-09
1.51276e-05
9.623e-09
1.51348e-05
1.02895e-08
1.51423e-05
1.04358e-08
1.51498e-05
1.01756e-08
1.51573e-05
9.6041e-09
1.51646e-05
8.79973e-09
1.51716e-05
7.82599e-09
1.51783e-05
6.73474e-09
1.51848e-05
5.56922e-09
1.51908e-05
4.36618e-09
1.51965e-05
3.1572e-09
1.52018e-05
1.96956e-09
1.52067e-05
8.27076e-10
1.52112e-05
-2.4843e-10
-1.22515e-09
1.52153e-05
1.76267e-05
8.98819e-10
1.76312e-05
1.73302e-09
1.76372e-05
2.30247e-09
1.76442e-05
2.59322e-09
1.76519e-05
2.62813e-09
1.76599e-05
2.44096e-09
1.7668e-05
2.06776e-09
1.7676e-05
1.54431e-09
1.76839e-05
9.04402e-10
1.76916e-05
1.7901e-10
1.76989e-05
-6.03851e-10
1.77059e-05
-1.419e-09
1.77125e-05
-2.24396e-09
1.77187e-05
-3.0589e-09
1.77245e-05
-3.84663e-09
1.773e-05
-4.5922e-09
1.7735e-05
-5.28156e-09
-5.89196e-09
1.77397e-05
1.78284e-05
-1.28045e-09
1.78326e-05
-2.50089e-09
1.78383e-05
-3.43214e-09
1.78451e-05
-4.14056e-09
1.78524e-05
-4.71748e-09
1.78601e-05
-5.22784e-09
1.78679e-05
-5.71024e-09
1.78756e-05
-6.18658e-09
1.78832e-05
-6.66712e-09
1.78905e-05
-7.15369e-09
1.78975e-05
-7.64254e-09
1.79043e-05
-8.12687e-09
1.79106e-05
-8.59843e-09
1.79166e-05
-9.04866e-09
1.79222e-05
-9.46943e-09
1.79275e-05
-9.85319e-09
1.79324e-05
-1.01919e-08
-1.04699e-08
1.7937e-05
1.58834e-05
-3.33485e-09
1.58873e-05
-6.4315e-09
1.58926e-05
-8.66754e-09
1.58986e-05
-1.02019e-08
1.59052e-05
-1.12598e-08
1.59119e-05
-1.2003e-08
1.59188e-05
-1.25383e-08
1.59255e-05
-1.29394e-08
1.59321e-05
-1.32552e-08
1.59385e-05
-1.35156e-08
1.59446e-05
-1.37374e-08
1.59504e-05
-1.39288e-08
1.59559e-05
-1.40933e-08
1.5961e-05
-1.42309e-08
1.59659e-05
-1.43406e-08
1.59705e-05
-1.44201e-08
1.59747e-05
-1.44656e-08
-1.44664e-08
1.59787e-05
1.41508e-05
-5.47169e-09
1.41548e-05
-1.03936e-08
1.41599e-05
-1.37639e-08
1.41656e-05
-1.59422e-08
1.41717e-05
-1.73351e-08
1.41779e-05
-1.82022e-08
1.4184e-05
-1.87142e-08
1.41901e-05
-1.89925e-08
1.4196e-05
-1.91198e-08
1.42016e-05
-1.91487e-08
1.4207e-05
-1.91119e-08
1.42121e-05
-1.90294e-08
1.42169e-05
-1.89131e-08
1.42214e-05
-1.87699e-08
1.42257e-05
-1.86035e-08
1.42297e-05
-1.84157e-08
1.42334e-05
-1.82058e-08
-1.79667e-08
1.42369e-05
1.26074e-05
-7.88266e-09
1.26117e-05
-1.4639e-08
1.26169e-05
-1.89437e-08
1.26225e-05
-2.15586e-08
1.26283e-05
-2.31254e-08
1.26341e-05
-2.39944e-08
1.26397e-05
-2.43949e-08
1.26452e-05
-2.44923e-08
1.26505e-05
-2.43969e-08
1.26555e-05
-2.41783e-08
1.26603e-05
-2.38806e-08
1.26648e-05
-2.35317e-08
1.2669e-05
-2.31495e-08
1.2673e-05
-2.27449e-08
1.26767e-05
-2.23251e-08
1.26802e-05
-2.18947e-08
1.26835e-05
-2.14554e-08
-2.10034e-08
1.26865e-05
1.12327e-05
-1.07876e-08
1.12374e-05
-1.9372e-08
1.12428e-05
-2.43264e-08
1.12484e-05
-2.71324e-08
1.1254e-05
-2.86957e-08
1.12594e-05
-2.94329e-08
1.12646e-05
-2.96261e-08
1.12696e-05
-2.94794e-08
1.12743e-05
-2.91231e-08
1.12788e-05
-2.86372e-08
1.1283e-05
-2.80724e-08
1.12869e-05
-2.74608e-08
1.12906e-05
-2.68228e-08
1.1294e-05
-2.61716e-08
1.12972e-05
-2.55161e-08
1.13002e-05
-2.48624e-08
1.13029e-05
-2.42143e-08
-2.35714e-08
1.13055e-05
1.00083e-05
-1.44585e-08
1.00137e-05
-2.47406e-08
1.00193e-05
-2.99244e-08
1.00248e-05
-3.26336e-08
1.00301e-05
-3.40005e-08
1.00351e-05
-3.44651e-08
1.00398e-05
-3.43555e-08
1.00442e-05
-3.39056e-08
1.00484e-05
-3.32554e-08
1.00522e-05
-3.24879e-08
1.00558e-05
-3.16547e-08
1.00591e-05
-3.07881e-08
1.00622e-05
-2.99083e-08
1.00651e-05
-2.90279e-08
1.00677e-05
-2.81556e-08
1.00701e-05
-2.72983e-08
1.00724e-05
-2.64614e-08
-2.56485e-08
1.00745e-05
8.91786e-06
-1.9221e-08
8.92391e-06
-3.0793e-08
8.9296e-06
-3.56164e-08
8.93488e-06
-3.79088e-08
8.93976e-06
-3.88833e-08
8.94424e-06
-3.89441e-08
8.94834e-06
-3.84532e-08
8.95209e-06
-3.76596e-08
8.95554e-06
-3.67002e-08
8.9587e-06
-3.56525e-08
8.96161e-06
-3.45635e-08
8.96428e-06
-3.34616e-08
8.96673e-06
-3.23638e-08
8.96899e-06
-3.128e-08
8.97105e-06
-3.02169e-08
8.97293e-06
-2.91798e-08
8.97464e-06
-2.81757e-08
-2.72133e-08
8.97621e-06
7.94686e-06
-2.54159e-08
7.95348e-06
-3.74076e-08
7.95898e-06
-4.11163e-08
7.96375e-06
-4.26774e-08
7.96796e-06
-4.30935e-08
7.97167e-06
-4.26577e-08
7.97496e-06
-4.17459e-08
7.9779e-06
-4.06031e-08
7.98055e-06
-3.93493e-08
7.98295e-06
-3.80476e-08
7.98512e-06
-3.67349e-08
7.98709e-06
-3.54329e-08
7.98888e-06
-3.4153e-08
7.9905e-06
-3.29008e-08
7.99196e-06
-3.16787e-08
7.99327e-06
-3.0489e-08
7.99443e-06
-2.93382e-08
-2.82405e-08
7.99545e-06
7.08223e-06
-3.33126e-08
7.08902e-06
-4.41991e-08
7.09386e-06
-4.59549e-08
7.09773e-06
-4.65483e-08
7.10096e-06
-4.63222e-08
7.10367e-06
-4.53705e-08
7.10598e-06
-4.40562e-08
7.10798e-06
-4.26016e-08
7.10972e-06
-4.10974e-08
7.11126e-06
-3.95859e-08
7.11262e-06
-3.80922e-08
7.11382e-06
-3.66305e-08
7.11487e-06
-3.52068e-08
7.11579e-06
-3.38219e-08
7.11658e-06
-3.24734e-08
7.11725e-06
-3.11575e-08
7.11779e-06
-2.98757e-08
-2.86412e-08
7.11819e-06
6.31217e-06
-4.2975e-08
6.31832e-06
-5.03474e-08
6.32184e-06
-4.94692e-08
6.32435e-06
-4.90576e-08
6.32625e-06
-4.82214e-08
6.32767e-06
-4.67998e-08
6.32875e-06
-4.51349e-08
6.32957e-06
-4.34179e-08
6.33018e-06
-4.17085e-08
6.33062e-06
-4.00301e-08
6.33093e-06
-3.8397e-08
6.33111e-06
-3.68167e-08
6.33119e-06
-3.529e-08
6.33118e-06
-3.38131e-08
6.33109e-06
-3.23776e-08
6.3309e-06
-3.09702e-08
6.3306e-06
-2.95779e-08
-2.81885e-08
6.33015e-06
5.62586e-06
-5.39335e-08
5.62969e-06
-5.41759e-08
5.63084e-06
-5.06265e-08
5.63117e-06
-4.93814e-08
5.63091e-06
-4.79666e-08
5.63023e-06
-4.61154e-08
5.62925e-06
-4.41572e-08
5.62807e-06
-4.22373e-08
5.62674e-06
-4.03812e-08
5.6253e-06
-3.85931e-08
5.62378e-06
-3.68766e-08
5.6222e-06
-3.52323e-08
5.62056e-06
-3.36567e-08
5.61889e-06
-3.21426e-08
5.61719e-06
-3.06768e-08
5.61545e-06
-2.92349e-08
5.61365e-06
-2.7776e-08
-2.6178e-08
5.61164e-06
5.01053e-06
-6.21599e-08
5.00697e-06
-5.06106e-08
5.00192e-06
-4.55815e-08
4.99617e-06
-4.36257e-08
4.98988e-06
-4.16754e-08
4.98331e-06
-3.95511e-08
4.97663e-06
-3.74754e-08
4.96991e-06
-3.55168e-08
4.96319e-06
-3.36697e-08
4.95652e-06
-3.19237e-08
4.94992e-06
-3.02726e-08
4.9434e-06
-2.87108e-08
4.93697e-06
-2.72318e-08
4.93065e-06
-2.58274e-08
4.92446e-06
-2.44859e-08
4.91841e-06
-2.31821e-08
4.91249e-06
-2.18575e-08
-2.00717e-08
4.90638e-06
4.39439e-06
4.34378e-06
4.2982e-06
4.25457e-06
4.2129e-06
4.17334e-06
4.13587e-06
4.10035e-06
4.06668e-06
4.03476e-06
4.00448e-06
3.97577e-06
3.94854e-06
3.92271e-06
3.89822e-06
3.87504e-06
3.85318e-06
3.83311e-06
3.75573e-09
-3.75571e-09
9.24518e-09
-5.48562e-09
1.47664e-08
-5.5189e-09
1.94291e-08
-4.66142e-09
2.2768e-08
-3.33821e-09
2.45804e-08
-1.81279e-09
2.48039e-08
-2.24373e-10
2.34767e-08
1.32569e-09
2.0702e-08
2.77242e-09
1.66142e-08
4.08501e-09
1.134e-08
5.27115e-09
4.98255e-09
6.35406e-09
-2.37112e-09
7.35007e-09
-1.06419e-08
8.2671e-09
-1.97507e-08
9.1052e-09
-2.96339e-08
9.87988e-09
-4.02413e-08
1.06045e-08
-5.15292e-08
1.12852e-08
-6.34574e-08
1.19259e-08
-7.59888e-08
1.25296e-08
-8.90893e-08
1.30992e-08
-1.02728e-07
1.36374e-08
-1.16876e-07
1.41476e-08
-1.31508e-07
1.46329e-08
-1.46605e-07
1.50967e-08
-1.62146e-07
1.55422e-08
-1.78117e-07
1.59724e-08
-1.94507e-07
1.63904e-08
-2.11304e-07
1.67987e-08
-2.28503e-07
1.71996e-08
-2.46098e-07
1.75951e-08
-2.64084e-07
1.79868e-08
-2.8246e-07
1.83763e-08
-3.01225e-07
1.87644e-08
-3.20377e-07
1.91522e-08
-3.39918e-07
1.95402e-08
-3.59847e-07
1.99287e-08
-3.80166e-07
2.03183e-08
-4.00876e-07
2.07089e-08
-4.21978e-07
2.11007e-08
-4.43472e-07
2.14936e-08
-4.6536e-07
2.18875e-08
-4.87641e-07
2.22819e-08
-5.10317e-07
2.26763e-08
-5.33386e-07
2.30703e-08
-5.56848e-07
2.3463e-08
-5.807e-07
2.38538e-08
-6.04941e-07
2.42417e-08
-6.29565e-07
2.46254e-08
-6.54568e-07
2.50038e-08
-6.79944e-07
2.53755e-08
-7.05683e-07
2.57391e-08
-7.31778e-07
2.6093e-08
-7.58215e-07
2.64358e-08
-7.84983e-07
2.6766e-08
-8.12067e-07
2.70818e-08
-8.3945e-07
2.73802e-08
-8.6711e-07
2.76584e-08
-8.95026e-07
2.79143e-08
-9.23176e-07
2.81485e-08
-9.51543e-07
2.83672e-08
-9.80131e-07
2.85883e-08
-1.00899e-06
2.88643e-08
-1.03834e-06
2.93473e-08
-1.06809e-06
2.97542e-08
-1.09804e-06
2.99435e-08
-1.12819e-06
3.01549e-08
-1.15857e-06
3.03815e-08
-1.18918e-06
3.06082e-08
-1.22001e-06
3.0826e-08
-1.25104e-06
3.10296e-08
-1.28226e-06
3.12156e-08
-1.31364e-06
3.13817e-08
-1.34517e-06
3.15261e-08
-1.37682e-06
3.1647e-08
-1.40856e-06
3.17427e-08
-1.44037e-06
3.18116e-08
-1.47222e-06
3.18518e-08
-1.50408e-06
3.1862e-08
-1.53593e-06
3.18403e-08
-1.56771e-06
3.17852e-08
-1.59941e-06
3.16948e-08
-1.63098e-06
3.15673e-08
-1.66238e-06
3.14011e-08
-1.69358e-06
3.11938e-08
-1.72452e-06
3.09431e-08
-1.75517e-06
3.06463e-08
-1.78547e-06
3.03004e-08
-1.81537e-06
2.99024e-08
-1.84483e-06
2.9449e-08
-1.87376e-06
2.89365e-08
-1.90213e-06
2.83613e-08
-1.92985e-06
2.77192e-08
-1.95685e-06
2.70055e-08
-1.98307e-06
2.62155e-08
-2.00841e-06
2.5344e-08
-2.0328e-06
2.43862e-08
-2.05614e-06
2.33377e-08
-2.07833e-06
2.21949e-08
-2.09929e-06
2.09548e-08
-2.1189e-06
1.96151e-08
-2.13707e-06
1.81745e-08
-2.1537e-06
1.6633e-08
-2.16869e-06
1.49919e-08
-2.18195e-06
1.32543e-08
-2.19338e-06
1.14255e-08
-2.20289e-06
9.51261e-09
-2.21041e-06
7.52462e-09
-2.21588e-06
5.47215e-09
-2.21925e-06
3.36679e-09
-2.22046e-06
1.22043e-09
-2.21951e-06
-9.5459e-10
-2.21638e-06
-3.13247e-09
-2.21109e-06
-5.28642e-09
-2.20369e-06
-7.40176e-09
-2.19423e-06
-9.46331e-09
-2.18278e-06
-1.14565e-08
-2.16941e-06
-1.33676e-08
-2.15423e-06
-1.51835e-08
-2.13734e-06
-1.68899e-08
-2.11887e-06
-1.8472e-08
-2.09895e-06
-1.99142e-08
-2.07775e-06
-2.1202e-08
-2.05543e-06
-2.23225e-08
-2.03217e-06
-2.32637e-08
-2.00816e-06
-2.40142e-08
-1.9836e-06
-2.45633e-08
-1.9587e-06
-2.49021e-08
-1.93368e-06
-2.50244e-08
-1.90876e-06
-2.4925e-08
-1.88417e-06
-2.45998e-08
-1.86012e-06
-2.40462e-08
-1.83686e-06
-2.32651e-08
-1.81459e-06
-2.22613e-08
-1.79355e-06
-2.10425e-08
-1.77393e-06
-1.96177e-08
-1.75593e-06
-1.79964e-08
-1.73973e-06
-1.61902e-08
-1.72551e-06
-1.42157e-08
-1.71341e-06
-1.20954e-08
-1.70355e-06
-9.85515e-09
-1.69603e-06
-7.51812e-09
-1.69093e-06
-5.10405e-09
-1.68829e-06
-2.63671e-09
-1.68813e-06
-1.59327e-10
-1.69041e-06
2.28085e-09
-1.69507e-06
4.64868e-09
-1.70198e-06
6.91029e-09
-1.71101e-06
9.02811e-09
-1.72198e-06
1.09642e-08
-1.73467e-06
1.26866e-08
-1.74884e-06
1.41653e-08
-1.76421e-06
1.53668e-08
-1.78046e-06
1.6257e-08
-1.79726e-06
1.68072e-08
-1.81426e-06
1.69957e-08
-1.83106e-06
1.68024e-08
-1.84726e-06
1.62037e-08
-1.86245e-06
1.51833e-08
-1.8762e-06
1.37386e-08
-1.88805e-06
1.18572e-08
-1.89756e-06
9.51839e-09
-1.9043e-06
6.72812e-09
-1.90782e-06
3.50912e-09
-1.90769e-06
-1.20895e-10
-1.90354e-06
-4.13636e-09
-1.89503e-06
-8.51098e-09
-1.8818e-06
-1.32327e-08
-1.86353e-06
-1.82621e-08
-1.83998e-06
-2.35465e-08
-1.81091e-06
-2.90559e-08
-1.77617e-06
-3.47292e-08
-1.73564e-06
-4.05285e-08
-1.68917e-06
-4.64651e-08
-1.63653e-06
-5.26443e-08
-1.57714e-06
-5.93898e-08
-1.50962e-06
-6.75308e-08
-1.43224e-06
-7.73845e-08
-1.33881e-06
-9.34374e-08
-1.32672e-07
-1.20613e-06
4.1863e-09
-7.94104e-09
7.96865e-09
-9.26556e-09
1.03619e-08
-7.91106e-09
1.13404e-08
-5.63944e-09
1.09395e-08
-2.9372e-09
9.17001e-09
-4.3543e-11
6.07373e-09
2.87106e-09
1.71605e-09
5.68211e-09
-3.83886e-09
8.32546e-09
-1.05149e-08
1.07585e-08
-1.82274e-08
1.29804e-08
-2.68882e-08
1.50109e-08
-3.64107e-08
1.68681e-08
-4.67144e-08
1.85659e-08
-5.77357e-08
2.01217e-08
-6.94162e-08
2.15557e-08
-8.17002e-08
2.28842e-08
-9.45389e-08
2.41202e-08
-1.0789e-07
2.52742e-08
-1.21718e-07
2.63551e-08
-1.3599e-07
2.7371e-08
-1.50683e-07
2.83293e-08
-1.65772e-07
2.92372e-08
-1.81239e-07
3.01017e-08
-1.9707e-07
3.09292e-08
-2.13252e-07
3.17258e-08
-2.29775e-07
3.24973e-08
-2.46632e-07
3.32488e-08
-2.63816e-07
3.39846e-08
-2.81324e-07
3.47087e-08
-2.99153e-07
3.54246e-08
-3.17301e-07
3.6135e-08
-3.35767e-07
3.68423e-08
-3.54551e-07
3.75483e-08
-3.73655e-07
3.82546e-08
-3.93078e-07
3.89622e-08
-4.12822e-07
3.96719e-08
-4.32888e-07
4.03842e-08
-4.53279e-07
4.10993e-08
-4.73995e-07
4.18172e-08
-4.95039e-07
4.25378e-08
-5.16411e-07
4.32607e-08
-5.38114e-07
4.39854e-08
-5.60147e-07
4.47112e-08
-5.82513e-07
4.54374e-08
-6.05212e-07
4.61628e-08
-6.28243e-07
4.68864e-08
-6.51608e-07
4.76068e-08
-6.75305e-07
4.83225e-08
-6.99333e-07
4.9032e-08
-7.23692e-07
4.97335e-08
-7.4838e-07
5.04256e-08
-7.73396e-07
5.11067e-08
-7.98738e-07
5.17754e-08
-8.24405e-07
5.24307e-08
-8.50397e-07
5.30713e-08
-8.76715e-07
5.36958e-08
-9.03361e-07
5.43029e-08
-9.30339e-07
5.48909e-08
-9.57649e-07
5.54577e-08
-9.85285e-07
5.60032e-08
-1.01323e-06
5.65372e-08
-1.04146e-06
5.70871e-08
-1.06979e-06
5.76809e-08
-1.09828e-06
5.82482e-08
-1.12708e-06
5.87386e-08
-1.15612e-06
5.92004e-08
-1.18539e-06
5.96438e-08
-1.21485e-06
6.00651e-08
-1.24448e-06
6.04586e-08
-1.27427e-06
6.08195e-08
-1.3042e-06
6.11433e-08
-1.33425e-06
6.14264e-08
-1.36439e-06
6.16652e-08
-1.3946e-06
6.18565e-08
-1.42485e-06
6.19971e-08
-1.45512e-06
6.2084e-08
-1.48539e-06
6.21138e-08
-1.51561e-06
6.20837e-08
-1.54577e-06
6.19903e-08
-1.57581e-06
6.18306e-08
-1.60572e-06
6.16013e-08
-1.63546e-06
6.12986e-08
-1.66498e-06
6.09185e-08
-1.69424e-06
6.0457e-08
-1.72321e-06
5.99092e-08
-1.75183e-06
5.92703e-08
-1.78007e-06
5.8535e-08
-1.80787e-06
5.76973e-08
-1.83517e-06
5.67511e-08
-1.86193e-06
5.56894e-08
-1.88807e-06
5.45048e-08
-1.91354e-06
5.31893e-08
-1.93827e-06
5.17343e-08
-1.96218e-06
5.01307e-08
-1.98521e-06
4.83697e-08
-2.00727e-06
4.64425e-08
-2.02827e-06
4.4341e-08
-2.04813e-06
4.2058e-08
-2.06676e-06
3.9588e-08
-2.08407e-06
3.69267e-08
-2.09997e-06
3.40723e-08
-2.11436e-06
3.10254e-08
-2.12716e-06
2.77895e-08
-2.13828e-06
2.43716e-08
-2.14764e-06
2.07821e-08
-2.15516e-06
1.70345e-08
-2.16078e-06
1.31464e-08
-2.16444e-06
9.13801e-09
-2.16611e-06
5.03155e-09
-2.16573e-06
8.48007e-10
-2.16331e-06
-3.3746e-09
-2.15887e-06
-7.58262e-09
-2.15242e-06
-1.17354e-08
-2.14402e-06
-1.58034e-08
-2.13373e-06
-1.97583e-08
-2.12162e-06
-2.35726e-08
-2.10777e-06
-2.72191e-08
-2.09228e-06
-3.067e-08
-2.07528e-06
-3.3897e-08
-2.05688e-06
-3.68718e-08
-2.03723e-06
-3.95664e-08
-2.01648e-06
-4.19543e-08
-1.99479e-06
-4.40104e-08
-1.97234e-06
-4.57112e-08
-1.94932e-06
-4.70356e-08
-1.92592e-06
-4.79651e-08
-1.90233e-06
-4.84847e-08
-1.87877e-06
-4.85822e-08
-1.85545e-06
-4.82488e-08
-1.83256e-06
-4.74793e-08
-1.81033e-06
-4.62729e-08
-1.78896e-06
-4.46339e-08
-1.76865e-06
-4.2572e-08
-1.74959e-06
-4.01011e-08
-1.73198e-06
-3.72399e-08
-1.71597e-06
-3.40111e-08
-1.70172e-06
-3.04433e-08
-1.68937e-06
-2.65711e-08
-1.67903e-06
-2.2436e-08
-1.67081e-06
-1.80839e-08
-1.66476e-06
-1.35627e-08
-1.66094e-06
-8.9216e-09
-1.65935e-06
-4.2135e-09
-1.66e-06
4.92263e-10
-1.66282e-06
5.11377e-09
-1.66774e-06
9.57459e-09
-1.67462e-06
1.38032e-08
-1.68332e-06
1.77294e-08
-1.69365e-06
2.12849e-08
-1.70536e-06
2.44049e-08
-1.71822e-06
2.70248e-08
-1.73193e-06
2.90802e-08
-1.74619e-06
3.05117e-08
-1.76066e-06
3.12671e-08
-1.77496e-06
3.1299e-08
-1.78873e-06
3.05658e-08
-1.80156e-06
2.90323e-08
-1.81304e-06
2.66679e-08
-1.82275e-06
2.3449e-08
-1.83025e-06
1.93578e-08
-1.83511e-06
1.43819e-08
-1.83689e-06
8.51907e-09
-1.83518e-06
1.79503e-09
-1.8296e-06
-5.70593e-09
-1.8198e-06
-1.39343e-08
-1.80543e-06
-2.28885e-08
-1.78614e-06
-3.25261e-08
-1.76162e-06
-4.27822e-08
-1.73162e-06
-5.35637e-08
-1.69591e-06
-6.47715e-08
-1.65433e-06
-7.63193e-08
-1.60672e-06
-8.81432e-08
-1.55294e-06
-1.00246e-07
-1.49279e-06
-1.12788e-07
-1.42598e-06
-1.26189e-07
-1.35192e-06
-1.41591e-07
-1.26944e-06
-1.59851e-07
-1.17517e-06
-1.87699e-07
-2.36023e-07
-1.07182e-06
2.16452e-09
-1.0103e-08
2.85432e-09
-9.95273e-09
2.04224e-09
-7.09814e-09
-1.19255e-10
-3.47769e-09
-3.49274e-09
4.36018e-10
-7.92941e-09
4.39231e-09
-1.33083e-08
8.24895e-09
-1.95629e-08
1.19354e-08
-2.66458e-08
1.54068e-08
-3.4527e-08
1.8638e-08
-4.31721e-08
2.16238e-08
-5.25351e-08
2.43721e-08
-6.25659e-08
2.68971e-08
-7.32176e-08
2.92159e-08
-8.44457e-08
3.13482e-08
-9.62058e-08
3.33143e-08
-1.08457e-07
3.51336e-08
-1.21161e-07
3.68235e-08
-1.34287e-07
3.83995e-08
-1.47809e-07
3.98757e-08
-1.61703e-07
4.12648e-08
-1.75952e-07
4.25782e-08
-1.90541e-07
4.38269e-08
-2.0546e-07
4.50205e-08
-2.20698e-07
4.61682e-08
-2.3625e-07
4.72781e-08
-2.52109e-07
4.83576e-08
-2.68273e-07
4.94131e-08
-2.84738e-07
5.04504e-08
-3.01503e-07
5.14741e-08
-3.18567e-07
5.24885e-08
-3.35929e-07
5.3497e-08
-3.53589e-07
5.45023e-08
-3.71548e-07
5.55067e-08
-3.89806e-07
5.65121e-08
-4.08364e-07
5.75197e-08
-4.27224e-07
5.85306e-08
-4.46386e-07
5.95454e-08
-4.65852e-07
6.05645e-08
-4.85623e-07
6.15878e-08
-5.057e-07
6.26153e-08
-5.26086e-07
6.36464e-08
-5.46781e-07
6.46808e-08
-5.67787e-07
6.57175e-08
-5.89104e-07
6.67556e-08
-6.10735e-07
6.77939e-08
-6.32679e-07
6.88312e-08
-6.54937e-07
6.98658e-08
-6.77511e-07
7.08962e-08
-7.00399e-07
7.19205e-08
-7.23603e-07
7.29369e-08
-7.47122e-07
7.39435e-08
-7.70955e-07
7.49385e-08
-7.95101e-07
7.59204e-08
-8.19559e-07
7.68874e-08
-8.44327e-07
7.78382e-08
-8.69403e-07
7.87711e-08
-8.94786e-07
7.96847e-08
-9.20472e-07
8.05769e-08
-9.4646e-07
8.14453e-08
-9.72744e-07
8.22882e-08
-9.99314e-07
8.31078e-08
-1.02614e-06
8.39107e-08
-1.05316e-06
8.46997e-08
-1.08036e-06
8.54547e-08
-1.10779e-06
8.61627e-08
-1.13542e-06
8.68318e-08
-1.16324e-06
8.74635e-08
-1.19123e-06
8.80544e-08
-1.21937e-06
8.8599e-08
-1.24765e-06
8.90921e-08
-1.27603e-06
8.95284e-08
-1.30451e-06
8.99029e-08
-1.33305e-06
9.02109e-08
-1.36164e-06
9.04476e-08
-1.39026e-06
9.06087e-08
-1.41886e-06
9.06896e-08
-1.44743e-06
9.06857e-08
-1.47594e-06
9.05926e-08
-1.50436e-06
9.04057e-08
-1.53265e-06
9.01201e-08
-1.56078e-06
8.97311e-08
-1.58872e-06
8.92333e-08
-1.61642e-06
8.8621e-08
-1.64385e-06
8.7888e-08
-1.67097e-06
8.70278e-08
-1.69774e-06
8.60334e-08
-1.7241e-06
8.48969e-08
-1.75002e-06
8.361e-08
-1.77543e-06
8.21635e-08
-1.80029e-06
8.05477e-08
-1.82454e-06
7.87518e-08
-1.84811e-06
7.67643e-08
-1.87095e-06
7.45729e-08
-1.89298e-06
7.21649e-08
-1.91414e-06
6.95277e-08
-1.93435e-06
6.66489e-08
-1.95352e-06
6.3517e-08
-1.97159e-06
6.01219e-08
-1.98845e-06
5.64554e-08
-2.00404e-06
5.25121e-08
-2.01825e-06
4.82893e-08
-2.03102e-06
4.37885e-08
-2.04224e-06
3.90153e-08
-2.05185e-06
3.39802e-08
-2.05977e-06
2.86984e-08
-2.06592e-06
2.31905e-08
-2.07026e-06
1.74822e-08
-2.07272e-06
1.16037e-08
-2.07328e-06
5.58878e-09
-2.0719e-06
-5.2914e-10
-2.06859e-06
-6.68539e-09
-2.06337e-06
-1.28024e-08
-2.05628e-06
-1.88297e-08
-2.04736e-06
-2.47238e-08
-2.03668e-06
-3.04431e-08
-2.0243e-06
-3.59471e-08
-2.01033e-06
-4.11953e-08
-1.99485e-06
-4.61473e-08
-1.97799e-06
-5.0762e-08
-1.95986e-06
-5.49987e-08
-1.94061e-06
-5.88177e-08
-1.92039e-06
-6.21806e-08
-1.89935e-06
-6.50515e-08
-1.87766e-06
-6.73973e-08
-1.85551e-06
-6.91885e-08
-1.83307e-06
-7.03998e-08
-1.81055e-06
-7.10104e-08
-1.78813e-06
-7.10046e-08
-1.76601e-06
-7.03715e-08
-1.74438e-06
-6.91065e-08
-1.72344e-06
-6.72107e-08
-1.70338e-06
-6.46929e-08
-1.68438e-06
-6.15686e-08
-1.66662e-06
-5.78607e-08
-1.65026e-06
-5.35989e-08
-1.63545e-06
-4.88202e-08
-1.62232e-06
-4.35692e-08
-1.61099e-06
-3.78987e-08
-1.60156e-06
-3.18693e-08
-1.5941e-06
-2.55482e-08
-1.58865e-06
-1.90077e-08
-1.58525e-06
-1.23234e-08
-1.58389e-06
-5.57254e-09
-1.58455e-06
1.15419e-09
-1.58718e-06
7.74169e-09
-1.59168e-06
1.40731e-08
-1.59792e-06
2.00426e-08
-1.60574e-06
2.55479e-08
-1.61495e-06
3.04892e-08
-1.62531e-06
3.47697e-08
-1.63658e-06
3.82942e-08
-1.64847e-06
4.09711e-08
-1.66067e-06
4.27161e-08
-1.67286e-06
4.34525e-08
-1.68467e-06
4.31102e-08
-1.69573e-06
4.16288e-08
-1.70566e-06
3.89594e-08
-1.71405e-06
3.50598e-08
-1.72049e-06
2.98927e-08
-1.72457e-06
2.34312e-08
-1.72585e-06
1.56631e-08
-1.72392e-06
6.58766e-09
-1.71841e-06
-3.71184e-09
-1.70898e-06
-1.51309e-08
-1.69527e-06
-2.76463e-08
-1.67692e-06
-4.12346e-08
-1.65361e-06
-5.58334e-08
-1.62503e-06
-7.13542e-08
-1.59093e-06
-8.76675e-08
-1.55107e-06
-1.04629e-07
-1.50527e-06
-1.22116e-07
-1.45338e-06
-1.4004e-07
-1.39523e-06
-1.58398e-07
-1.33063e-06
-1.77388e-07
-1.25937e-06
-1.97445e-07
-1.18111e-06
-2.19856e-07
-1.09525e-06
-2.45706e-07
-1.00059e-06
-2.8236e-07
-3.34244e-07
-9.0237e-07
-5.68682e-10
-9.53262e-09
-2.9233e-09
-7.59481e-09
-6.58433e-09
-3.43586e-09
-1.12726e-08
1.21119e-09
-1.67652e-08
5.92896e-09
-2.29247e-08
1.05518e-08
-2.96894e-08
1.50132e-08
-3.70241e-08
1.92696e-08
-4.491e-08
2.32918e-08
-5.3336e-08
2.70629e-08
-6.22908e-08
3.05773e-08
-7.17586e-08
3.38385e-08
-8.17196e-08
3.68566e-08
-9.21515e-08
3.96464e-08
-1.0303e-07
4.22257e-08
-1.14331e-07
4.46141e-08
-1.2603e-07
4.68314e-08
-1.38105e-07
4.88971e-08
-1.50536e-07
5.08294e-08
-1.63306e-07
5.26456e-08
-1.76403e-07
5.43614e-08
-1.89816e-07
5.59913e-08
-2.03537e-07
5.75483e-08
-2.1756e-07
5.90444e-08
-2.31881e-07
6.04902e-08
-2.46498e-07
6.1895e-08
-2.61406e-07
6.32672e-08
-2.76606e-07
6.46138e-08
-2.92096e-07
6.59409e-08
-3.07876e-07
6.72539e-08
-3.23944e-07
6.85571e-08
-3.40302e-07
6.98542e-08
-3.56948e-07
7.1148e-08
-3.73882e-07
7.24411e-08
-3.91106e-07
7.37354e-08
-4.08619e-07
7.50322e-08
-4.26422e-07
7.63328e-08
-4.44515e-07
7.76379e-08
-4.62899e-07
7.89478e-08
-4.81575e-07
8.02629e-08
-5.00542e-07
8.15828e-08
-5.19803e-07
8.29073e-08
-5.39358e-07
8.42359e-08
-5.59208e-07
8.55676e-08
-5.79354e-07
8.69015e-08
-5.99796e-07
8.82364e-08
-6.20535e-07
8.95709e-08
-6.41573e-07
9.09032e-08
-6.62908e-07
9.22316e-08
-6.84542e-07
9.35541e-08
-7.06474e-07
9.48686e-08
-7.28704e-07
9.6173e-08
-7.51231e-07
9.7465e-08
-7.74054e-07
9.87425e-08
-7.97171e-07
1.00003e-07
-8.20579e-07
1.01245e-07
-8.44274e-07
1.02465e-07
-8.68251e-07
1.03662e-07
-8.92506e-07
1.04831e-07
-9.1703e-07
1.0597e-07
-9.41815e-07
1.07074e-07
-9.66851e-07
1.08144e-07
-9.92117e-07
1.09178e-07
-1.01759e-06
1.10175e-07
-1.04326e-06
1.11127e-07
-1.06913e-06
1.1203e-07
-1.09518e-06
1.12882e-07
-1.1214e-06
1.1368e-07
-1.14777e-06
1.1442e-07
-1.17427e-06
1.15096e-07
-1.20088e-06
1.15701e-07
-1.22758e-06
1.16229e-07
-1.25435e-06
1.16675e-07
-1.28117e-06
1.17033e-07
-1.30802e-06
1.17296e-07
-1.33487e-06
1.17459e-07
-1.3617e-06
1.17516e-07
-1.38847e-06
1.17462e-07
-1.41517e-06
1.1729e-07
-1.44176e-06
1.16995e-07
-1.46822e-06
1.16571e-07
-1.4945e-06
1.1601e-07
-1.52057e-06
1.15307e-07
-1.5464e-06
1.14454e-07
-1.57196e-06
1.13443e-07
-1.5972e-06
1.12266e-07
-1.62208e-06
1.10914e-07
-1.64656e-06
1.09376e-07
-1.67059e-06
1.07643e-07
-1.69413e-06
1.05702e-07
-1.71713e-06
1.0354e-07
-1.73952e-06
1.01145e-07
-1.76125e-06
9.85e-08
-1.78227e-06
9.55905e-08
-1.80251e-06
9.24e-08
-1.82189e-06
8.8912e-08
-1.84035e-06
8.51106e-08
-1.85782e-06
8.0981e-08
-1.8742e-06
7.651e-08
-1.88944e-06
7.16873e-08
-1.90343e-06
6.65055e-08
-1.9161e-06
6.09617e-08
-1.92737e-06
5.5058e-08
-1.93716e-06
4.88019e-08
-1.94539e-06
4.22075e-08
-1.95198e-06
3.52951e-08
-1.95688e-06
2.8092e-08
-1.96003e-06
2.06321e-08
-1.96138e-06
1.29552e-08
-1.9609e-06
5.10668e-09
-1.95857e-06