/*--------------------------------*- C++ -*----------------------------------*\
| =========                 |                                                 |
| \\      /  F ield         | OpenFOAM: The Open Source CFD Toolbox           |
|  \\    /   O peration     | Version:  1.4.2                                 |
|   \\  /    A nd           | Web:      http://www.openfoam.org               |
|    \\/     M anipulation  |                                                 |
\*---------------------------------------------------------------------------*/
FoamFile
{
    version     2.0;
    format      ascii;
    class       volVectorField;
    object      U;
    location    "700";
}
// * * * * * * * * * * * * * * * * * * * * * * * * * * * * * * * * * * * * * //

dimensions      [0 1 -1 0 0 0 0];

internalField   nonuniform List<vector> 
12225
(
(9.77631 0.0380802 0)
(9.58165 0.0388037 0)
(9.36739 0.0370213 0)
(9.16175 0.036156 0)
(8.97093 0.0352099 0)
(8.79279 0.0340374 0)
(8.62613 0.0327668 0)
(8.47067 0.0314615 0)
(8.32605 0.0301356 0)
(8.19183 0.0287937 0)
(8.06754 0.0274398 0)
(7.95275 0.0260736 0)
(7.8471 0.0246878 0)
(7.7503 0.0232625 0)
(7.66224 0.0217507 0)
(7.58312 0.0200311 0)
(7.51467 0.0178398 0)
(7.45035 0.00466331 0)
(10.004 0.0585743 0)
(10.0077 0.0555245 0)
(9.98308 0.0518566 0)
(9.95111 0.0514227 0)
(9.91832 0.0511405 0)
(9.88422 0.050477 0)
(9.84881 0.0496367 0)
(9.81267 0.0487099 0)
(9.77629 0.0476957 0)
(9.74 0.0465851 0)
(9.7041 0.0453715 0)
(9.66891 0.0440401 0)
(9.63473 0.0425579 0)
(9.60196 0.0408572 0)
(9.5711 0.0387929 0)
(9.54294 0.0360235 0)
(9.51901 0.0317031 0)
(9.49743 0.0219769 0)
(10.0174 0.0524277 0)
(10.037 0.0526682 0)
(10.0383 0.0512375 0)
(10.0338 0.0521786 0)
(10.0285 0.0527975 0)
(10.0223 0.0527768 0)
(10.015 0.0524482 0)
(10.007 0.0519547 0)
(9.99853 0.0513141 0)
(9.98984 0.0505235 0)
(9.98101 0.0495748 0)
(9.9722 0.0484425 0)
(9.96356 0.04707 0)
(9.95531 0.0453468 0)
(9.9477 0.0430527 0)
(9.94105 0.0397284 0)
(9.93565 0.0343403 0)
(9.92818 0.0243379 0)
(10.0158 0.0449535 0)
(10.0376 0.0501263 0)
(10.046 0.050654 0)
(10.0489 0.0521584 0)
(10.051 0.0531257 0)
(10.0522 0.0534106 0)
(10.0526 0.0533291 0)
(10.0524 0.0530274 0)
(10.0519 0.052535 0)
(10.0513 0.0518547 0)
(10.0506 0.0509767 0)
(10.0499 0.0498684 0)
(10.0494 0.0484606 0)
(10.0491 0.0466251 0)
(10.0492 0.0441309 0)
(10.0497 0.040566 0)
(10.0503 0.0352583 0)
(10.0489 0.0272932 0)
(10.0125 0.037082 0)
(10.0331 0.0461474 0)
(10.0446 0.0485733 0)
(10.0509 0.0506817 0)
(10.0561 0.0519787 0)
(10.0603 0.0525016 0)
(10.0638 0.0525785 0)
(10.0668 0.0523731 0)
(10.0694 0.0519315 0)
(10.0719 0.0512636 0)
(10.0742 0.0503602 0)
(10.0766 0.0491864 0)
(10.079 0.0476706 0)
(10.0816 0.0456876 0)
(10.0843 0.0430337 0)
(10.087 0.039399 0)
(10.0894 0.0344107 0)
(10.0902 0.0278441 0)
(10.0094 0.0302341 0)
(10.0273 0.0413816 0)
(10.0399 0.0454291 0)
(10.0483 0.0482104 0)
(10.0552 0.049899 0)
(10.0612 0.0506966 0)
(10.0664 0.0509492 0)
(10.071 0.0508415 0)
(10.0752 0.0504433 0)
(10.0792 0.0497786 0)
(10.0831 0.0488445 0)
(10.0869 0.047609 0)
(10.0907 0.046006 0)
(10.0945 0.0439268 0)
(10.0982 0.0412118 0)
(10.1017 0.0376568 0)
(10.1047 0.0330938 0)
(10.1065 0.027603 0)
(10.0067 0.0244777 0)
(10.0216 0.0363816 0)
(10.0341 0.0415816 0)
(10.0434 0.0449293 0)
(10.0514 0.0470076 0)
(10.0585 0.0481019 0)
(10.0648 0.0485552 0)
(10.0705 0.0485675 0)
(10.0757 0.0482299 0)
(10.0807 0.0475813 0)
(10.0855 0.0466279 0)
(10.0901 0.0453469 0)
(10.0946 0.0436854 0)
(10.099 0.0415601 0)
(10.1032 0.0388611 0)
(10.1071 0.035473 0)
(10.1103 0.0313532 0)
(10.1126 0.026688 0)
(10.005 0.0203579 0)
(10.0173 0.0322047 0)
(10.0291 0.0380052 0)
(10.0386 0.0417063 0)
(10.047 0.0440452 0)
(10.0546 0.0453522 0)
(10.0614 0.0459633 0)
(10.0677 0.0460815 0)
(10.0735 0.0458071 0)
(10.0791 0.0451876 0)
(10.0843 0.0442374 0)
(10.0894 0.0429432 0)
(10.0943 0.0412671 0)
(10.099 0.0391502 0)
(10.1034 0.0365227 0)
(10.1074 0.0333275 0)
(10.1108 0.029583 0)
(10.1134 0.0254918 0)
(10.0039 0.017204 0)
(10.0141 0.02862 0)
(10.0249 0.0347135 0)
(10.0342 0.0386407 0)
(10.0426 0.0411592 0)
(10.0504 0.0426226 0)
(10.0576 0.0433555 0)
(10.0642 0.0435585 0)
(10.0704 0.0433378 0)
(10.0763 0.042748 0)
(10.0819 0.0418107 0)
(10.0873 0.0405213 0)
(10.0924 0.0388555 0)
(10.0972 0.0367751 0)
(10.1017 0.0342413 0)
(10.1058 0.0312365 0)
(10.1093 0.0278113 0)
(10.1121 0.0241617 0)
(10.0029 0.014349 0)
(10.0112 0.0249759 0)
(10.0208 0.0311272 0)
(10.0297 0.0351593 0)
(10.0379 0.037793 0)
(10.0457 0.0393762 0)
(10.0529 0.0402105 0)
(10.0597 0.0404894 0)
(10.0662 0.0403212 0)
(10.0723 0.0397658 0)
(10.0781 0.0388516 0)
(10.0836 0.0375838 0)
(10.0888 0.0359524 0)
(10.0938 0.0339401 0)
(10.0983 0.0315347 0)
(10.1025 0.0287481 0)
(10.1061 0.0256471 0)
(10.1091 0.0224114 0)
(10.0021 0.0117913 0)
(10.0088 0.0213572 0)
(10.0171 0.0273299 0)
(10.0253 0.0313211 0)
(10.0331 0.0339781 0)
(10.0406 0.035622 0)
(10.0478 0.0365196 0)
(10.0545 0.0368517 0)
(10.061 0.0367253 0)
(10.0672 0.0362034 0)
(10.073 0.0353204 0)
(10.0786 0.0340914 0)
(10.0839 0.0325202 0)
(10.0888 0.0306078 0)
(10.0934 0.0283633 0)
(10.0975 0.0258178 0)
(10.1011 0.0230423 0)
(10.1043 0.0201936 0)
(10.0015 0.00952708 0)
(10.0068 0.0178402 0)
(10.0139 0.0234028 0)
(10.0212 0.0272009 0)
(10.0284 0.0297726 0)
(10.0355 0.0313995 0)
(10.0424 0.0323074 0)
(10.049 0.0326577 0)
(10.0553 0.032553 0)
(10.0614 0.0320569 0)
(10.0672 0.0312089 0)
(10.0727 0.0300325 0)
(10.0779 0.0285436 0)
(10.0827 0.026758 0)
(10.0872 0.0246992 0)
(10.0913 0.0224082 0)
(10.0949 0.0199526 0)
(10.0981 0.0174629 0)
(10.0011 0.0075333 0)
(10.0052 0.0144803 0)
(10.0111 0.0194194 0)
(10.0176 0.022872 0)
(10.0242 0.0252422 0)
(10.0307 0.0267634 0)
(10.0372 0.0276178 0)
(10.0435 0.0279433 0)
(10.0495 0.0278334 0)
(10.0554 0.0273503 0)
(10.0609 0.0265363 0)
(10.0663 0.0254218 0)
(10.0713 0.0240316 0)
(10.0759 0.0223912 0)
(10.0803 0.0205324 0)
(10.0842 0.0184985 0)
(10.0877 0.0163489 0)
(10.091 0.0141892 0)
(10.0009 0.0057667 0)
(10.0041 0.0113001 0)
(10.009 0.0154359 0)
(10.0146 0.018395 0)
(10.0205 0.0204461 0)
(10.0265 0.021768 0)
(10.0324 0.0225002 0)
(10.0383 0.0227534 0)
(10.044 0.0226083 0)
(10.0495 0.0221226 0)
(10.0548 0.021339 0)
(10.0598 0.0202913 0)
(10.0645 0.0190093 0)
(10.069 0.0175236 0)
(10.0731 0.0158683 0)
(10.0768 0.0140839 0)
(10.0803 0.0122201 0)
(10.0834 0.0103602 0)
(10.0007 0.00417314 0)
(10.0032 0.00828712 0)
(10.0073 0.0114795 0)
(10.0121 0.0138075 0)
(10.0174 0.0154249 0)
(10.0228 0.0164541 0)
(10.0283 0.0169936 0)
(10.0337 0.0171255 0)
(10.039 0.0169143 0)
(10.0441 0.0164096 0)
(10.049 0.0156506 0)
(10.0537 0.0146707 0)
(10.0581 0.0135008 0)
(10.0623 0.0121714 0)
(10.0662 0.0107145 0)
(10.0697 0.00916524 0)
(10.073 0.00756333 0)
(10.0761 0.00597328 0)
(10.0005 0.00269326 0)
(10.0026 0.00539285 0)
(10.0061 0.00753592 0)
(10.0103 0.00910995 0)
(10.0149 0.0101852 0)
(10.0198 0.0108314 0)
(10.0248 0.0111088 0)
(10.0298 0.0110707 0)
(10.0347 0.0107621 0)
(10.0395 0.0102206 0)
(10.044 0.00947833 0)
(10.0484 0.00856402 0)
(10.0525 0.00750486 0)
(10.0564 0.00632765 0)
(10.06 0.00505942 0)
(10.0634 0.00372815 0)
(10.0665 0.00236416 0)
(10.0695 0.0010168 0)
(10.0005 0.00126169 0)
(10.0023 0.00253245 0)
(10.0053 0.00353904 0)
(10.009 0.00425237 0)
(10.0133 0.00468747 0)
(10.0177 0.00486808 0)
(10.0223 0.00481866 0)
(10.0269 0.00456376 0)
(10.0315 0.00412686 0)
(10.0359 0.00352992 0)
(10.0402 0.00279358 0)
(10.0442 0.00193798 0)
(10.0481 0.000983104 0)
(10.0517 -5.11194e-05 0)
(10.0552 -0.00114475 0)
(10.0584 -0.00227755 0)
(10.0613 -0.0034275 0)
(10.0641 -0.004557 0)
(10.0004 -0.00012196 0)
(10.0021 -0.000257302 0)
(10.005 -0.000399328 0)
(10.0085 -0.00057477 0)
(10.0125 -0.000809982 0)
(10.0168 -0.00112232 0)
(10.0211 -0.00152102 0)
(10.0255 -0.00200952 0)
(10.0298 -0.00258686 0)
(10.034 -0.00324851 0)
(10.038 -0.0039871 0)
(10.0419 -0.00479331 0)
(10.0456 -0.00565642 0)
(10.049 -0.00656472 0)
(10.0523 -0.00750595 0)
(10.0554 -0.00846728 0)
(10.0582 -0.00943393 0)
(10.0609 -0.0103782 0)
(10.0004 -0.00143594 0)
(10.0022 -0.00289118 0)
(10.0052 -0.0040922 0)
(10.0088 -0.00507309 0)
(10.0128 -0.00590723 0)
(10.0171 -0.00665384 0)
(10.0214 -0.00735504 0)
(10.0257 -0.00804138 0)
(10.0299 -0.00873369 0)
(10.034 -0.00944437 0)
(10.0379 -0.0101793 0)
(10.0416 -0.0109397 0)
(10.0452 -0.0117233 0)
(10.0486 -0.012526 0)
(10.0517 -0.0133419 0)
(10.0547 -0.0141639 0)
(10.0575 -0.0149828 0)
(10.0601 -0.0157782 0)
(10.0005 -0.00274024 0)
(10.0026 -0.00544771 0)
(10.0059 -0.00758807 0)
(10.0098 -0.00924474 0)
(10.014 -0.0105622 0)
(10.0184 -0.0116463 0)
(10.0228 -0.0125721 0)
(10.0271 -0.0133967 0)
(10.0313 -0.0141611 0)
(10.0354 -0.0148923 0)
(10.0393 -0.0156075 0)
(10.043 -0.0163164 0)
(10.0465 -0.017024 0)
(10.0498 -0.0177318 0)
(10.053 -0.0184392 0)
(10.0559 -0.0191438 0)
(10.0586 -0.0198403 0)
(10.0612 -0.0205141 0)
(10.0007 -0.00415193 0)
(10.0032 -0.00810735 0)
(10.0071 -0.0110748 0)
(10.0115 -0.013274 0)
(10.0161 -0.0149565 0)
(10.0207 -0.016278 0)
(10.0253 -0.0173467 0)
(10.0297 -0.0182458 0)
(10.034 -0.0190346 0)
(10.0381 -0.0197524 0)
(10.042 -0.020425 0)
(10.0457 -0.0210687 0)
(10.0491 -0.021694 0)
(10.0524 -0.0223067 0)
(10.0554 -0.0229102 0)
(10.0583 -0.0235056 0)
(10.061 -0.0240912 0)
(10.0635 -0.0246575 0)
(10.0009 -0.00579727 0)
(10.0043 -0.011019 0)
(10.009 -0.0146711 0)
(10.014 -0.0172617 0)
(10.019 -0.019183 0)
(10.0239 -0.0206357 0)
(10.0287 -0.0217609 0)
(10.0332 -0.0226672 0)
(10.0376 -0.0234294 0)
(10.0417 -0.0240959 0)
(10.0455 -0.0246984 0)
(10.0491 -0.0252581 0)
(10.0525 -0.0257885 0)
(10.0557 -0.0262986 0)
(10.0586 -0.0267945 0)
(10.0614 -0.0272802 0)
(10.0639 -0.0277571 0)
(10.0663 -0.0282207 0)
(10.0014 -0.00782923 0)
(10.0059 -0.0143037 0)
(10.0117 -0.0184294 0)
(10.0174 -0.021231 0)
(10.0228 -0.0232517 0)
(10.028 -0.024721 0)
(10.0328 -0.0258115 0)
(10.0374 -0.0266556 0)
(10.0417 -0.0273391 0)
(10.0457 -0.0279157 0)
(10.0494 -0.0284205 0)
(10.0529 -0.0288766 0)
(10.0561 -0.029299 0)
(10.059 -0.029698 0)
(10.0618 -0.0300808 0)
(10.0643 -0.0304534 0)
(10.0666 -0.0308204 0)
(10.0689 -0.0311827 0)
(10.0021 -0.0104359 0)
(10.0083 -0.018038 0)
(10.0153 -0.0223235 0)
(10.0216 -0.0251216 0)
(10.0272 -0.0270882 0)
(10.0325 -0.0284536 0)
(10.0373 -0.0294198 0)
(10.0417 -0.0301381 0)
(10.0457 -0.0306983 0)
(10.0494 -0.0311543 0)
(10.0528 -0.0315406 0)
(10.056 -0.0318796 0)
(10.0588 -0.0321857 0)
(10.0615 -0.0324683 0)
(10.0639 -0.0327346 0)
(10.0661 -0.0329911 0)
(10.0681 -0.0332454 0)
(10.07 -0.0335054 0)
(10.0033 -0.0138394 0)
(10.0116 -0.0222137 0)
(10.0198 -0.026227 0)
(10.0263 -0.0287851 0)
(10.0318 -0.0305447 0)
(10.0368 -0.0316971 0)
(10.0412 -0.0324649 0)
(10.0451 -0.033008 0)
(10.0486 -0.0334131 0)
(10.0518 -0.0337296 0)
(10.0546 -0.0339881 0)
(10.0573 -0.034208 0)
(10.0596 -0.0344007 0)
(10.0618 -0.0345729 0)
(10.0637 -0.034729 0)
(10.0654 -0.0348738 0)
(10.067 -0.0350164 0)
(10.0684 -0.0351731 0)
(10.005 -0.018296 0)
(10.0159 -0.0266609 0)
(10.0247 -0.02987 0)
(10.0307 -0.0319679 0)
(10.0355 -0.0333883 0)
(10.0397 -0.0342446 0)
(10.0432 -0.0347704 0)
(10.0462 -0.0351212 0)
(10.0489 -0.0353692 0)
(10.0512 -0.0355514 0)
(10.0532 -0.0356912 0)
(10.055 -0.0358028 0)
(10.0566 -0.0358935 0)
(10.058 -0.035966 0)
(10.0592 -0.0360203 0)
(10.0602 -0.036056 0)
(10.0611 -0.0360795 0)
(10.0618 -0.0361119 0)
(10.0075 -0.0241253 0)
(10.0207 -0.0310245 0)
(10.0287 -0.0328168 0)
(10.0331 -0.034319 0)
(10.0363 -0.0353657 0)
(10.0389 -0.0359205 0)
(10.0409 -0.0362137 0)
(10.0424 -0.0363885 0)
(10.0435 -0.0364971 0)
(10.0443 -0.0365622 0)
(10.0449 -0.0365987 0)
(10.0453 -0.0366155 0)
(10.0455 -0.0366165 0)
(10.0455 -0.0366005 0)
(10.0455 -0.0365621 0)
(10.0452 -0.0364922 0)
(10.0449 -0.0363857 0)
(10.0443 -0.0362511 0)
(10.0101 -0.0307458 0)
(10.0238 -0.0344082 0)
(10.0287 -0.0343631 0)
(10.0292 -0.0352375 0)
(10.0289 -0.0359389 0)
(10.0281 -0.0362258 0)
(10.0266 -0.0363094 0)
(10.0246 -0.0363162 0)
(10.0224 -0.0362823 0)
(10.0199 -0.036221 0)
(10.0172 -0.0361423 0)
(10.0145 -0.0360527 0)
(10.0116 -0.0359537 0)
(10.0086 -0.0358418 0)
(10.0056 -0.0357064 0)
(10.0026 -0.0355252 0)
(9.99945 -0.0352639 0)
(9.99601 -0.0348584 0)
(10.0062 -0.0364081 0)
(10.0142 -0.0379474 0)
(10.0067 -0.0361129 0)
(9.99423 -0.0359762 0)
(9.9816 -0.0359996 0)
(9.96877 -0.0357932 0)
(9.95554 -0.0354974 0)
(9.94211 -0.0351987 0)
(9.92864 -0.0349094 0)
(9.91525 -0.0346269 0)
(9.90197 -0.0343508 0)
(9.88884 -0.0340806 0)
(9.87589 -0.033814 0)
(9.86315 -0.0335454 0)
(9.85064 -0.0332628 0)
(9.83838 -0.032936 0)
(9.82644 -0.0324965 0)
(9.81423 -0.0315583 0)
(9.89292 -0.0248309 0)
(9.80337 -0.027076 0)
(9.69906 -0.0264882 0)
(9.59607 -0.0263391 0)
(9.49955 -0.0261466 0)
(9.40856 -0.0258009 0)
(9.32224 -0.0253941 0)
(9.24035 -0.0249803 0)
(9.16272 -0.0245719 0)
(9.08914 -0.0241705 0)
(9.01937 -0.0237767 0)
(8.95321 -0.0233906 0)
(8.89045 -0.0230114 0)
(8.83093 -0.0226367 0)
(8.77449 -0.0222614 0)
(8.72099 -0.0218695 0)
(8.67053 -0.0214139 0)
(8.62159 -0.020537 0)
(0.00194291 -0.00374853 0)
(0.00562308 -0.00611602 0)
(0.0106743 -0.00683143 0)
(0.0153378 -0.00625169 0)
(0.0189614 -0.00490475 0)
(0.0212878 -0.00322185 0)
(0.0222305 -0.00145611 -4.58134e-19)
(0.0217334 0.000259986 4.42558e-19)
(0.0199001 0.00184381 0)
(0.0168443 0.00327639 4.26678e-19)
(0.0126889 0.00458748 0)
(0.0075501 0.00581617 0)
(0.0014763 0.00697401 0)
(-0.00552354 0.00802813 -4.32595e-19)
(-0.0132292 0.00894267 0)
(-0.0216766 0.00976421 0)
(-0.0308017 0.010517 3.74697e-19)
(-0.0405614 0.0112096 0)
(-0.0509196 0.0118464 0)
(-0.0618432 0.0124308 0)
(-0.0733012 0.0129662 -3.06527e-19)
(-0.0852648 0.0134568 0)
(-0.097708 0.0139068 -2.77251e-19)
(-0.110608 0.0143209 0)
(-0.123944 0.0147037 0)
(-0.137701 0.0150595 -2.39472e-19)
(-0.151864 0.0153927 0)
(-0.166422 0.015707 2.18007e-19)
(-0.181367 0.0160055 0)
(-0.196692 0.0162914 -1.99122e-19)
(-0.212392 0.0165669 0)
(-0.228463 0.0168343 0)
(-0.244904 0.0170953 0)
(-0.261713 0.0173513 0)
(-0.27889 0.0176035 0)
(-0.296436 0.0178525 1.54712e-19)
(-0.314352 0.0180988 0)
(-0.332642 0.0183429 -2.86175e-19)
(-0.351306 0.018585 0)
(-0.370348 0.0188249 2.65394e-19)
(-0.389769 0.0190624 0)
(-0.409571 0.0192971 0)
(-0.429754 0.0195284 -2.38148e-19)
(-0.45032 0.0197557 0)
(-0.47127 0.0199781 -2.22215e-19)
(-0.492604 0.0201948 2.14835e-19)
(-0.514322 0.0204046 0)
(-0.536424 0.020606 2.01132e-19)
(-0.558908 0.0207972 1.94767e-19)
(-0.58177 0.0209756 0)
(-0.605007 0.0211386 0)
(-0.628613 0.0212827 0)
(-0.65258 0.0214038 0)
(-0.676898 0.0214961 0)
(-0.701556 0.0215522 -1.62311e-19)
(-0.726543 0.0215625 0)
(-0.751851 0.0215158 1.53327e-19)
(-0.777467 0.0214016 0)
(-0.803365 0.0212134 0)
(-0.829506 0.0209556 -1.41126e-19)
(-0.855868 0.0206641 0)
(-0.882497 0.0204553 1.33521e-19)
(-0.909492 0.0205925 0)
(-0.936871 0.0215299 0)
(-0.964639 0.0222887 0)
(-0.992736 0.0223434 -1.1989e-19)
(-1.02106 0.0223768 0)
(-1.04963 0.0224227 0)
(-1.07847 0.02247 -1.11738e-19)
(-1.10756 0.0225113 0)
(-1.13691 0.0225424 -1.06801e-19)
(-1.16648 0.022561 0)
(-1.19627 0.0225657 0)
(-1.22626 0.0225553 0)
(-1.25643 0.0225287 9.79566e-20)
(-1.28676 0.022485 0)
(-1.31723 0.0224231 0)
(-1.3478 0.0223421 9.21061e-20)
(-1.37846 0.0222413 9.02871e-20)
(-1.40918 0.0221199 0)
(-1.43993 0.0219771 8.68272e-20)
(-1.47067 0.021812 0)
(-1.50137 0.0216237 1.67173e-19)
(-1.53199 0.0214113 0)
(-1.56251 0.0211735 1.61086e-19)
(-1.59288 0.0209089 0)
(-1.62307 0.0206161 -1.55355e-19)
(-1.65302 0.0202934 0)
(-1.68269 0.0199393 0)
(-1.71203 0.0195517 0)
(-1.74098 0.0191288 1.44807e-19)
(-1.7695 0.0186683 0)
(-1.79751 0.0181681 -1.39919e-19)
(-1.82494 0.0176255 0)
(-1.85174 0.0170382 1.35243e-19)
(-1.87782 0.0164034 1.32975e-19)
(-1.9031 0.0157188 1.30749e-19)
(-1.9275 0.0149825 0)
(-1.95093 0.0141928 0)
(-1.9733 0.0133485 0)
(-1.9945 0.0124489 0)
(-2.01444 0.0114941 0)
(-2.03302 0.0104848 0)
(-2.05014 0.00942309 0)
(-2.0657 0.00831153 0)
(-2.07961 0.00715376 -1.11993e-19)
(-2.09178 0.00595433 -1.09991e-19)
(-2.10213 0.00471883 0)
(-2.11058 0.00345371 0)
(-2.11708 0.00216595 0)
(-2.12156 0.000862876 -1.02015e-19)
(-2.124 -0.000443192 0)
(-2.12435 -0.0017351 0)
(-2.12265 -0.00300195 0)
(-2.1189 -0.00423793 0)
(-2.11315 -0.00543511 9.16854e-20)
(-2.10545 -0.00658597 0)
(-2.09585 -0.00768313 0)
(-2.08445 -0.00871898 -8.53798e-20)
(-2.07134 -0.00968556 8.32629e-20)
(-2.05662 -0.0105749 0)
(-2.04042 -0.0113792 7.90147e-20)
(-2.02287 -0.0120913 0)
(-2.00414 -0.0127037 -7.47612e-20)
(-1.98437 -0.0132098 0)
(-1.96376 -0.0136033 0)
(-1.94248 -0.0138792 0)
(-1.92074 -0.0140332 0)
(-1.89874 -0.0140617 0)
(-1.87671 -0.0139622 1.24448e-19)
(-1.85485 -0.0137332 1.2042e-19)
(-1.8334 -0.0133744 0)
(-1.81258 -0.012887 0)
(-1.7926 -0.0122731 0)
(-1.7737 -0.0115366 -1.05084e-19)
(-1.75609 -0.010683 0)
(-1.73997 -0.00971934 0)
(-1.72554 -0.00865435 0)
(-1.71296 -0.00749884 -9.1405e-20)
(-1.70242 -0.00626538 8.82948e-20)
(-1.69404 -0.00496698 0)
(-1.68797 -0.00361711 0)
(-1.68431 -0.00223295 7.97656e-20)
(-1.68312 -0.000837458 7.71899e-20)
(-1.68443 0.000549988 0)
(-1.68825 0.00191492 0)
(-1.69452 0.00323487 -7.00444e-20)
(-1.70318 0.00448593 6.78666e-20)
(-1.71411 0.00565048 0)
(-1.72716 0.0067122 0)
(-1.74213 0.00765387 6.17896e-20)
(-1.75882 0.00845893 0)
(-1.77696 0.00911486 0)
(-1.79625 0.00961114 5.60303e-20)
(-1.81637 0.00993635 0)
(-1.83698 0.0100812 5.20846e-20)
(-1.8577 0.0100395 0)
(-1.87812 0.00980645 0)
(-1.89782 0.00938259 0)
(-1.91635 0.00877117 -4.30071e-20)
(-1.93328 0.00796653 0)
(-1.94813 0.00695848 0)
(-1.96041 0.00574679 0)
(-1.96966 0.00435196 0)
(-1.97539 0.00279992 0)
(-1.97718 0.00110622 0)
(-1.97464 -0.000723971 -1.78384e-20)
(-1.96737 -0.00268353 -1.26682e-20)
(-1.95499 -0.00475446 0)
(-1.93715 -0.00691999 0)
(-1.91358 -0.00916366 0)
(-1.88404 -0.0114695 -1.36191e-20)
(-1.84835 -0.0138307 0)
(-1.80634 -0.0162767 6.17036e-20)
(-1.75775 -0.0189028 -8.14364e-20)
(-1.70228 -0.0219323 -1.03066e-19)
(-1.63954 -0.025863 1.26828e-19)
(-1.56753 -0.0315795 -1.5324e-19)
(-1.47519 -0.0429957 1.83309e-19)
(-1.35438 -0.0709993 0)
(0.00214666 -0.0116324 0)
(0.00574545 -0.0151761 0)
(0.00835855 -0.0140706 6.47449e-19)
(0.00984907 -0.0111604 0)
(0.0101351 -0.00738927 -4.65782e-19)
(0.00920251 -0.00323791 -4.35057e-19)
(0.00702372 0.00101316 -2.07326e-19)
(0.00372637 0.0051019 -2.00315e-19)
(-0.000681198 0.00889265 0)
(-0.00612143 0.0122942 -1.85767e-19)
(-0.0125182 0.0153164 0)
(-0.0198028 0.0180164 0)
(-0.0278963 0.0204337 3.24712e-19)
(-0.0367265 0.0225864 1.55125e-19)
(-0.0462263 0.0245081 -2.9629e-19)
(-0.0563479 0.0262426 -2.83033e-19)
(-0.0670398 0.0278173 -1.35248e-19)
(-0.078257 0.0292521 0)
(-0.0899598 0.0305619 0)
(-0.102115 0.0317589 0)
(-0.114692 0.0328542 -1.13233e-19)
(-0.127668 0.0338581 0)
(-0.141021 0.0347807 3.12502e-19)
(-0.154734 0.0356319 0)
(-0.168793 0.0364211 0)
(-0.183186 0.037157 9.24851e-20)
(-0.197905 0.0378476 0)
(-0.212941 0.0385002 -8.57938e-20)
(-0.228292 0.0391211 -1.65378e-19)
(-0.243951 0.0397158 7.98461e-20)
(-0.259918 0.0402889 0)
(-0.276191 0.0408444 0)
(-0.292769 0.0413855 0)
(-0.309652 0.0419148 -1.39412e-19)
(-0.326842 0.0424344 -1.34987e-19)
(-0.34434 0.0429459 -6.54349e-20)
(-0.362148 0.0434502 0)
(-0.380267 0.0439481 1.23021e-19)
(-0.398702 0.0444398 0)
(-0.417453 0.0449256 -1.15855e-19)
(-0.436524 0.0454051 0)
(-0.455917 0.0458781 0)
(-0.475633 0.0463441 1.06211e-19)
(-0.495674 0.0468024 0)
(-0.516043 0.0472521 3.01069e-19)
(-0.53674 0.0476924 -9.77072e-20)
(-0.557768 0.0481222 0)
(-0.579127 0.0485407 -9.25947e-20)
(-0.600818 0.0489464 -9.01923e-20)
(-0.622842 0.0493381 0)
(-0.645198 0.0497145 0)
(-0.667887 0.0500745 0)
(-0.690908 0.0504173 0)
(-0.71426 0.0507424 0)
(-0.737944 0.0510497 7.7751e-20)
(-0.76196 0.0513387 1.51752e-19)
(-0.786311 0.0516091 -7.43022e-20)
(-0.811001 0.0518606 0)
(-0.836031 0.0520927 1.42095e-19)
(-0.861405 0.0523004 -6.94617e-20)
(-0.887129 0.0524709 0)
(-0.913194 0.0525888 -6.6843e-20)
(-0.93955 0.0526598 0)
(-0.966109 0.052728 0)
(-0.992863 0.0528037 -1.24734e-19)
(-1.01989 0.0528554 6.10542e-20)
(-1.0472 0.0529058 -1.19121e-19)
(-1.07478 0.0529528 1.16451e-19)
(-1.10259 0.0529861 5.70494e-20)
(-1.13063 0.0529977 0)
(-1.15887 0.052982 5.45872e-20)
(-1.18729 0.0529351 0)
(-1.21589 0.0528543 0)
(-1.24463 0.0527373 0)
(-1.27351 0.0525821 4.9877e-20)
(-1.30249 0.052387 0)
(-1.33157 0.0521503 9.59131e-20)
(-1.3607 0.0518702 -1.41067e-19)
(-1.38988 0.0515454 -4.61545e-20)
(-1.41906 0.0511744 0)
(-1.44821 0.0507559 -4.43469e-20)
(-1.47731 0.0502883 0)
(-1.50633 0.0497699 -8.52798e-20)
(-1.53523 0.0491991 0)
(-1.56397 0.0485737 -8.20481e-20)
(-1.59252 0.0478915 1.60565e-19)
(-1.62083 0.04715 7.89804e-20)
(-1.64886 0.0463466 0)
(-1.67657 0.0454782 0)
(-1.70391 0.0445416 0)
(-1.73083 0.0435332 -7.32627e-20)
(-1.75726 0.042449 0)
(-1.78315 0.041285 7.05754e-20)
(-1.80845 0.0400367 0)
(-1.83307 0.0386994 -2.03604e-19)
(-1.85696 0.0372686 -6.67077e-20)
(-1.88003 0.0357402 -6.54535e-20)
(-1.9022 0.0341106 0)
(-1.9234 0.0323769 0)
(-1.94354 0.0305372 0)
(-1.96253 0.0285909 0)
(-1.98028 0.0265386 0)
(-1.99669 0.0243829 -1.16151e-19)
(-2.01168 0.0221282 -1.13794e-19)
(-2.02516 0.0197807 0)
(-2.03704 0.0173489 5.46007e-20)
(-2.04726 0.0148434 5.34176e-20)
(-2.05572 0.0122767 0)
(-2.06238 0.00966316 1.02092e-19)
(-2.06718 0.00701747 0)
(-2.07008 0.00435295 -4.87336e-20)
(-2.07102 0.00169027 0)
(-2.07003 -0.000937228 0)
(-2.06713 -0.00350187 9.02177e-20)
(-2.06233 -0.00598678 0)
(-2.05569 -0.00837635 -4.26192e-20)
(-2.04725 -0.0106558 0)
(-2.0371 -0.0128108 0)
(-2.02532 -0.014827 -3.92198e-20)
(-2.012 -0.0166901 -3.77904e-20)
(-1.99725 -0.0183863 0)
(-1.9812 -0.0199024 3.56856e-20)
(-1.964 -0.0212262 0)
(-1.94578 -0.0223462 -3.33688e-20)
(-1.9267 -0.0232521 -6.41625e-20)
(-1.90695 -0.0239353 0)
(-1.8867 -0.0243891 0)
(-1.86615 -0.0246086 0)
(-1.84549 -0.0245906 0)
(-1.82492 -0.0243338 -5.30408e-20)
(-1.80465 -0.0238389 -1.53617e-19)
(-1.78489 -0.0231092 0)
(-1.76585 -0.0221506 0)
(-1.74772 -0.0209709 0)
(-1.73071 -0.0195808 4.367e-20)
(-1.71501 -0.017993 0)
(-1.70079 -0.0162227 0)
(-1.68823 -0.0142878 -7.80858e-20)
(-1.67747 -0.0122094 -3.76726e-20)
(-1.66864 -0.0100115 -3.61932e-20)
(-1.66187 -0.0077187 0)
(-1.65724 -0.00535479 0)
(-1.65483 -0.00294508 -3.26788e-20)
(-1.65468 -0.000521364 3.15205e-20)
(-1.65679 0.00187833 0)
(-1.66114 0.00421555 0)
(-1.66767 0.00645502 2.89463e-20)
(-1.6763 0.00856298 -8.41295e-20)
(-1.68689 0.0105081 0)
(-1.69928 0.0122618 0)
(-1.71326 0.0137962 -2.59941e-20)
(-1.72861 0.0150834 0)
(-1.74505 0.0160985 -4.88984e-20)
(-1.7623 0.0168211 2.35782e-20)
(-1.78001 0.0172327 0)
(-1.79784 0.017317 -2.25659e-20)
(-1.81542 0.017061 -4.32663e-20)
(-1.83233 0.0164551 0)
(-1.84815 0.0154959 0)
(-1.86247 0.0141857 1.90844e-20)
(-1.87483 0.0125199 0)
(-1.88478 0.0104883 -3.34868e-20)
(-1.89184 0.00809368 0)
(-1.89554 0.00536712 0)
(-1.89545 0.00235005 0)
(-1.89122 -0.000933485 0)
(-1.88242 -0.00447361 8.1434e-21)
(-1.86867 -0.00824965 5.7933e-21)
(-1.84959 -0.0122279 0)
(-1.82485 -0.0163697 0)
(-1.79416 -0.0206345 0)
(-1.75728 -0.0249854 6.22706e-21)
(-1.71403 -0.0293938 0)
(-1.66419 -0.0338628 -2.8086e-20)
(-1.60755 -0.0384663 3.69456e-20)
(-1.54385 -0.0433882 4.65709e-20)
(-1.47277 -0.0491011 5.38826e-20)
(-1.3937 -0.0559564 6.84967e-20)
(-1.30066 -0.0669008 7.66628e-20)
(-1.19761 -0.0888402 0)
(0.00121739 -0.0183673 0)
(0.0025839 -0.0195429 0)
(0.00242593 -0.0154094 -4.87658e-19)
(0.00111231 -0.00971956 -3.93463e-19)
(-0.00134324 -0.00341001 3.41575e-19)
(-0.00484453 0.00305172 3.05794e-19)
(-0.00920063 0.00931953 2.45063e-23)
(-0.0143657 0.0152276 0)
(-0.0202887 0.0206873 0)
(-0.0269368 0.0256574 0)
(-0.0342846 0.0301417 0)
(-0.0422978 0.0341696 0)
(-0.0509334 0.0377785 -6.00564e-19)
(-0.060149 0.0410073 0)
(-0.0699052 0.0438979 1.83358e-19)
(-0.0801635 0.0464922 1.75707e-19)
(-0.0908864 0.048827 0)
(-0.10204 0.0509343 0)
(-0.113594 0.0528413 0)
(-0.125523 0.0545714 0)
(-0.137806 0.0561458 1.43649e-19)
(-0.150426 0.0575836 0)
(-0.163369 0.0589022 -1.33324e-19)
(-0.176624 0.0601178 0)
(-0.190184 0.0612449 0)
(-0.204041 0.062297 0)
(-0.218192 0.0632858 -2.32085e-19)
(-0.232632 0.0642217 0)
(-0.247361 0.0651138 1.08857e-19)
(-0.262376 0.0659696 -2.10987e-19)
(-0.277677 0.0667956 0)
(-0.293264 0.0675972 0)
(-0.309137 0.0683786 0)
(-0.325298 0.0691435 9.38307e-20)
(-0.341746 0.0698944 9.12421e-20)
(-0.358484 0.0706334 0)
(-0.375514 0.0713621 0)
(-0.392837 0.0720812 -1.68172e-19)
(-0.410455 0.0727914 -1.63815e-19)
(-0.428372 0.0734925 1.59629e-19)
(-0.446588 0.0741845 0)
(-0.465106 0.0748667 0)
(-0.483927 0.0755386 0)
(-0.503055 0.076199 0)
(-0.52249 0.076847 -1.41013e-19)
(-0.542234 0.077481 -1.3757e-19)
(-0.56229 0.0780995 1.34334e-19)
(-0.582659 0.0787009 0)
(-0.603342 0.0792832 0)
(-0.624342 0.0798445 0)
(-0.645658 0.080383 0)
(-0.667293 0.0808967 -1.19731e-19)
(-0.689245 0.0813842 0)
(-0.711516 0.0818443 0)
(-0.734106 0.0822764 -1.12093e-19)
(-0.757013 0.08268 -1.09812e-19)
(-0.780238 0.0830552 0)
(-0.803779 0.0834024 2.10326e-19)
(-0.827635 0.0837223 -1.03085e-19)
(-0.851805 0.0840159 1.00951e-19)
(-0.876292 0.0842852 0)
(-0.901094 0.0845374 0)
(-0.926184 0.0847821 0)
(-0.951516 0.0850143 0)
(-0.977066 0.0851903 9.06231e-20)
(-1.00285 0.085297 1.77037e-19)
(-1.02887 0.0853588 8.66857e-20)
(-1.05511 0.0853827 -8.4799e-20)
(-1.08158 0.0853669 0)
(-1.10823 0.0853068 1.62149e-19)
(-1.13507 0.0851981 1.58687e-19)
(-1.16206 0.0850365 1.55323e-19)
(-1.1892 0.0848184 -1.52053e-19)
(-1.21647 0.0845405 0)
(-1.24384 0.0842001 -2.18785e-19)
(-1.27129 0.0837945 0)
(-1.29881 0.0833212 6.98177e-20)
(-1.32636 0.0827778 6.86092e-20)
(-1.35392 0.082162 0)
(-1.38147 0.0814716 0)
(-1.40897 0.0807044 1.28897e-19)
(-1.4364 0.079858 0)
(-1.46371 0.0789297 1.23825e-19)
(-1.49089 0.0779168 0)
(-1.51789 0.0768162 -1.18989e-19)
(-1.54468 0.0756246 -2.335e-19)
(-1.57122 0.0743382 0)
(-1.59746 0.0729532 0)
(-1.62337 0.071465 0)
(-1.64889 0.0698687 -1.07778e-19)
(-1.67398 0.0681591 0)
(-1.69858 0.0663303 -1.0358e-19)
(-1.72264 0.0643761 0)
(-1.74609 0.0622899 0)
(-1.76888 0.060065 1.95176e-19)
(-1.79094 0.057695 0)
(-1.81219 0.0551742 9.35976e-20)
(-1.83257 0.0524974 0)
(-1.85199 0.0496608 8.97552e-20)
(-1.87037 0.0466624 0)
(-1.88763 0.0435018 0)
(-1.90369 0.040181 0)
(-1.91846 0.0367049 2.46773e-19)
(-1.93185 0.0330811 8.04344e-20)
(-1.94379 0.0293205 0)
(-1.95419 0.0254371 0)
(-1.96298 0.0214482 0)
(-1.9701 0.0173744 0)
(-1.97549 0.0132389 -7.12105e-20)
(-1.9791 0.00906567 1.38822e-19)
(-1.98089 0.00487794 6.75626e-20)
(-1.98084 0.00071786 -1.31475e-19)
(-1.97896 -0.0033624 -1.27766e-19)
(-1.97529 -0.00732839 -6.19668e-20)
(-1.96984 -0.0111536 0)
(-1.96266 -0.0148137 -1.16766e-19)
(-1.95382 -0.0182855 0)
(-1.94339 -0.0215467 1.09552e-19)
(-1.93145 -0.0245751 5.2879e-20)
(-1.9181 -0.0273493 0)
(-1.90346 -0.0298488 -9.89723e-20)
(-1.88764 -0.0320543 -4.76342e-20)
(-1.87079 -0.0339478 0)
(-1.85303 -0.035513 -4.45279e-20)
(-1.83455 -0.036736 1.28132e-19)
(-1.81549 -0.0376058 0)
(-1.79603 -0.0381142 0)
(-1.77637 -0.0382559 0)
(-1.75668 -0.0380285 0)
(-1.73715 -0.037433 7.02101e-20)
(-1.71798 -0.0364737 6.72097e-20)
(-1.69936 -0.0351587 0)
(-1.68149 -0.0334998 0)
(-1.66454 -0.0315125 0)
(-1.6487 -0.0292162 0)
(-1.63414 -0.0266339 0)
(-1.62102 -0.0237914 0)
(-1.60949 -0.0207187 5.07775e-20)
(-1.59968 -0.0174499 -7.04584e-24)
(-1.59169 -0.0140234 0)
(-1.58562 -0.0104792 0)
(-1.58155 -0.00685684 4.38596e-20)
(-1.57952 -0.00319553 0)
(-1.57956 0.000461869 -4.11759e-20)
(-1.58165 0.00406223 -3.9782e-20)
(-1.58578 0.00754537 0)
(-1.59187 0.0108559 0)
(-1.59982 0.0139432 3.6636e-20)
(-1.60949 0.0167595 7.09883e-20)
(-1.62073 0.0192605 0)
(-1.63331 0.0214045 0)
(-1.64701 0.0231511 0)
(-1.66155 0.0244627 3.22494e-20)
(-1.67665 0.0253077 -3.14189e-20)
(-1.69198 0.0256592 0)
(-1.7072 0.0254931 -5.91067e-20)
(-1.72192 0.0247907 -2.85336e-20)
(-1.73577 0.0235396 5.52728e-20)
(-1.74832 0.0217344 0)
(-1.75916 0.0193738 0)
(-1.76785 0.0164503 4.79863e-20)
(-1.77397 0.012957 2.23957e-20)
(-1.77702 0.00891429 0)
(-1.77656 0.0043776 0)
(-1.77228 -0.000598254 0)
(-1.76376 -0.00598999 0)
(-1.75059 -0.0117796 2.30281e-20)
(-1.7324 -0.0179316 0)
(-1.70883 -0.0243968 0)
(-1.67953 -0.031113 0)
(-1.64424 -0.0380135 0)
(-1.60268 -0.0450417 0)
(-1.55466 -0.0521561 0)
(-1.49997 -0.0593562 -3.42719e-20)
(-1.43837 -0.0667335 0)
(-1.36963 -0.0744951 0)
(-1.29341 -0.0832247 -1.44654e-19)
(-1.20976 -0.0933723 8.56763e-20)
(-1.1141 -0.10824 -1.03911e-19)
(-1.0166 -0.131246 1.15648e-19)
(-0.000275232 -0.0197927 0)
(-0.00132352 -0.0177851 1.23197e-18)
(-0.00397023 -0.0110047 0)
(-0.00768526 -0.00308939 3.1808e-19)
(-0.0122418 0.00507129 0)
(-0.0174163 0.0130182 0)
(-0.0231538 0.0205868 -2.11257e-19)
(-0.0294132 0.0276894 0)
(-0.0361723 0.0342731 0)
(-0.0434199 0.0403139 0)
(-0.0511486 0.0458131 0)
(-0.0593476 0.050791 0)
(-0.0680014 0.0552791 5.85681e-19)
(-0.0770921 0.0593159 2.80175e-19)
(-0.0866 0.0629433 -2.68608e-19)
(-0.096504 0.0662043 0)
(-0.106783 0.0691401 0)
(-0.117416 0.0717891 0)
(-0.128385 0.0741862 0)
(-0.139676 0.0763628 0)
(-0.151275 0.0783475 2.14454e-19)
(-0.163172 0.0801658 2.07336e-19)
(-0.17536 0.0818406 -2.0065e-19)
(-0.187834 0.0833926 1.94362e-19)
(-0.20059 0.0848402 0)
(-0.213625 0.0861995 0)
(-0.226937 0.0874845 1.7762e-19)
(-0.240526 0.0887075 0)
(-0.254391 0.0898789 0)
(-0.268532 0.0910073 1.63401e-19)
(-0.282949 0.0921001 1.59083e-19)
(-0.297643 0.0931632 1.55002e-19)
(-0.312613 0.0942017 0)
(-0.327861 0.0952194 0)
(-0.343387 0.0962193 -1.43792e-19)
(-0.359192 0.0972039 0)
(-0.375277 0.0981747 0)
(-0.391644 0.0991331 1.33895e-19)
(-0.408293 0.10008 -1.30735e-19)
(-0.425228 0.101014 1.2776e-19)
(-0.442448 0.101937 0)
(-0.459956 0.102848 0)
(-0.477753 0.103746 2.38868e-19)
(-0.495841 0.10463 0)
(-0.51422 0.105499 2.28532e-19)
(-0.532892 0.106351 3.3542e-19)
(-0.55186 0.107185 -3.28206e-19)
(-0.571124 0.107999 2.14098e-19)
(-0.590686 0.108791 0)
(-0.610548 0.109559 0)
(-0.630709 0.1103 2.00795e-19)
(-0.651172 0.111014 9.83373e-20)
(-0.671936 0.111697 0)
(-0.693001 0.112348 0)
(-0.714366 0.112965 9.23323e-20)
(-0.73603 0.113547 1.80758e-19)
(-0.757992 0.114092 0)
(-0.780249 0.114598 -1.73453e-19)