/*--------------------------------*- C++ -*----------------------------------*\
| =========                 |                                                 |
| \\      /  F ield         | OpenFOAM: The Open Source CFD Toolbox           |
|  \\    /   O peration     | Version:  1.4.2                                 |
|   \\  /    A nd           | Web:      http://www.openfoam.org               |
|    \\/     M anipulation  |                                                 |
\*---------------------------------------------------------------------------*/
FoamFile
{
    version     2.0;
    format      ascii;
    class       volScalarField;
    object      epsilon;
    location    "750";
}
// * * * * * * * * * * * * * * * * * * * * * * * * * * * * * * * * * * * * * //

dimensions      [0 2 -3 0 0 0 0];

internalField   nonuniform List<scalar> 
12225
(
443.026
353.452
290.586
245.345
212.188
187.594
169.245
155.572
145.485
138.21
133.183
129.986
128.301
127.881
128.529
130.083
132.409
135.671
60.1656
73.6155
79.568
83.6949
87.714
92.3538
97.9684
104.74
112.766
122.099
132.759
144.737
157.998
172.478
188.08
204.667
221.993
240.122
26.2958
33.71
37.845
40.6833
42.9299
44.9526
46.9639
49.0916
51.4156
53.9865
56.8363
59.983
63.4328
67.1796
71.2027
75.4583
79.8566
84.2333
18.7355
22.7235
25.4806
27.3758
28.8178
30.0126
31.0724
32.0707
33.0568
34.0635
35.1122
36.2166
37.3839
38.6159
39.9086
41.2516
42.6246
43.9836
16.1687
18.1634
19.9327
21.292
22.3447
23.1852
23.8878
24.5055
25.0724
25.6103
26.1342
26.6543
27.1774
27.7072
28.2449
28.7893
29.3364
29.8673
15.2354
16.0864
17.0484
17.9368
18.6892
19.3116
19.8309
20.2729
20.659
21.0059
21.3259
21.6276
21.9172
22.1984
22.4739
22.7446
23.0097
23.2588
14.8942
15.17
15.5864
16.0522
16.5062
16.9217
17.2896
17.6101
17.8892
18.1348
18.3542
18.5533
18.7368
18.9085
19.0708
19.2254
19.3723
19.5053
14.7876
14.838
14.9915
15.2092
15.4537
15.7009
15.9368
16.1543
16.351
16.5276
16.6862
16.8291
16.959
17.0782
17.1887
17.2919
17.3884
17.4747
14.7441
14.6884
14.7003
14.7662
14.8675
14.9882
15.1163
15.2439
15.3661
15.4805
15.586
15.6827
15.7712
15.8523
15.9269
15.996
16.0601
16.1176
14.7239
14.6134
14.5425
14.5091
14.5063
14.5261
14.5613
14.6058
14.655
14.7057
14.7557
14.8038
14.8493
14.8918
14.9314
14.9682
15.0023
15.0329
14.7149
14.579
14.4658
14.3758
14.3077
14.2585
14.2249
14.2034
14.191
14.1852
14.184
14.1858
14.1895
14.1942
14.1995
14.2049
14.2103
14.2149
14.7109
14.5642
14.4319
14.3142
14.2111
14.1218
14.0449
13.9791
13.9228
13.8744
13.8326
13.7964
13.7645
13.7363
13.711
13.6881
13.6673
13.6481
14.7089
14.5577
14.4176
14.2882
14.1691
14.0601
13.9605
13.8699
13.7873
13.7121
13.6436
13.5809
13.5235
13.4707
13.422
13.3769
13.335
13.2965
14.7076
14.5544
14.4112
14.2772
14.1518
14.0345
13.925
13.8227
13.7273
13.6382
13.5551
13.4774
13.4048
13.3368
13.2731
13.2134
13.1573
13.1055
14.7067
14.5523
14.4076
14.2717
14.1439
14.0235
13.9101
13.8033
13.7025
13.6074
13.5177
13.433
13.353
13.2774
13.2059
13.1383
13.0744
13.0149
14.706
14.5507
14.4052
14.2684
14.1394
14.0178
13.9029
13.7943
13.6915
13.5941
13.5018
13.4143
13.3313
13.2524
13.1775
13.1063
13.0389
12.9759
14.7055
14.5497
14.4036
14.2662
14.1367
14.0144
13.8988
13.7894
13.6857
13.5874
13.494
13.4054
13.3211
13.241
13.1648
13.0922
13.0234
12.9591
14.7053
14.5494
14.403
14.2654
14.1356
14.013
13.8971
13.7873
13.6833
13.5846
13.4909
13.4019
13.3173
13.2369
13.1603
13.0875
13.0184
12.9539
14.7055
14.5497
14.4035
14.2659
14.1362
14.0138
13.8981
13.7886
13.685
13.5868
13.4937
13.4054
13.3216
13.2421
13.1665
13.0948
13.0269
12.9637
14.706
14.5507
14.4051
14.2683
14.1396
14.0185
13.9045
13.7971
13.6959
13.6006
13.5107
13.426
13.346
13.2705
13.1992
13.1318
13.0683
13.0095
14.7068
14.5528
14.4093
14.2755
14.151
14.0353
13.9279
13.8284
13.7361
13.6504
13.5708
13.4968
13.4279
13.3635
13.3034
13.2471
13.1944
13.146
14.7086
14.5589
14.4227
14.3001
14.1905
14.0931
14.0068
13.9303
13.8623
13.8016
13.747
13.6976
13.6526
13.6113
13.5731
13.5376
13.5045
13.4743
14.7142
14.5802
14.4708
14.3853
14.3209
14.2739
14.2405
14.2172
14.2011
14.1898
14.1815
14.175
14.1693
14.1638
14.1581
14.1519
14.1451
14.1383
14.7358
14.6588
14.6349
14.6534
14.7004
14.7639
14.8349
14.9068
14.9754
15.0383
15.0944
15.1431
15.1847
15.2195
15.2482
15.2714
15.2899
15.3046
14.8205
14.9298
15.138
15.3947
15.6602
15.9123
16.14
16.3384
16.5073
16.6492
16.7675
16.8658
16.9471
17.0144
17.0699
17.1159
17.154
17.1858
15.1412
15.7855
16.517
17.2068
17.7961
18.2813
18.6742
18.9897
19.2424
19.4453
19.6092
19.7427
19.8527
19.9444
20.0219
20.0885
20.1466
20.1979
16.3189
18.2995
19.9621
21.2351
22.1813
22.8822
23.4045
23.7998
24.1052
24.3458
24.5398
24.7003
24.8371
24.9574
25.0667
25.1688
25.2666
25.3618
20.7544
25.6375
28.6922
30.5982
31.8393
32.6632
33.2222
33.6186
33.9176
34.1613
34.3773
34.5833
34.7908
35.0072
35.2367
35.4818
35.743
36.0194
43.9611
54.4815
58.7074
60.4208
60.9763
60.9915
60.8475
60.7574
60.7884
60.9696
61.3102
61.8084
62.4571
63.246
64.1635
65.1971
66.3321
67.561
332.626
280.253
240.732
210.192
186.153
166.941
151.386
138.653
128.129
119.362
112.006
105.799
100.536
96.0548
92.2271
88.9494
86.1384
83.7249
0.0217454
0.028124
0.0398557
0.05326
0.0670704
0.0809294
0.095053
0.110179
0.12748
0.146675
0.167623
0.190181
0.214401
0.240581
0.269441
0.30036
0.333276
0.368576
0.406542
0.447435
0.491531
0.539128
0.590555
0.646164
0.70634
0.771495
0.84207
0.918539
1.0014
1.0912
1.18851
1.29392
1.40809
1.53168
1.66543
1.8101
1.9665
2.13549
2.31798
2.51496
2.72744
2.95652
3.20338
3.46926
3.7555
4.06352
4.39487
4.7512
5.13434
5.54626
5.98914
6.46543
6.97788
7.52966
8.12448
8.76679
9.46203
10.217
11.0406
11.9445
12.9445
14.0624
15.329
16.7882
18.5039
20.5703
23.1289
26.3977
30.7211
36.6611
39.3483
42.0407
44.8785
47.875
51.0373
54.3724
57.8874
61.5891
65.4847
69.5812
73.886
78.4061
83.1489
88.1218
93.3321
98.7872
104.495
110.462
116.697
123.208
130
137.083
144.464
152.15
160.148
168.464
177.106
186.079
195.387
205.036
215.027
225.362
236.041
247.063
258.422
270.114
282.129
294.458
307.088
320.004
333.191
346.631
360.307
374.203
388.306
402.606
417.107
431.838
446.736
461.647
476.533
491.353
506.06
520.607
534.939
549.002
562.736
576.081
588.975
601.353
613.15
624.301
634.742
644.411
653.246
661.191
668.194
674.212
679.205
683.143
686.006
687.781
688.469
688.08
686.636
684.169
680.723
676.35
671.112
665.08
658.333
650.951
643.016
634.619
625.852
616.797
607.538
598.16
588.738
579.343
570.045
560.903
551.972
543.3
534.932
526.903
519.245
511.978
505.119
498.665
492.582
487.05
482.003
477.251
472.726
468.352
464.075
459.565
455.133
449.095
0.0677962
0.0565604
0.0586212
0.0646309
0.0728994
0.083389
0.0961419
0.111201
0.128511
0.148178
0.170198
0.194221
0.220354
0.248707
0.279389
0.312431
0.347913
0.385981
0.426803
0.470569
0.517486
0.567782
0.621706
0.679526
0.741534
0.808041
0.879378
0.955899
1.03798
1.12602
1.22044
1.32168
1.43022
1.54655
1.67121
1.80476
1.94779
2.10094
2.26488
2.44033
2.62806
2.82889
3.0437
3.27342
3.51909
3.78179
4.06273
4.36322
4.6847
5.02875
5.39713
5.79182
6.21505
6.66933
7.15755
7.68303
8.24964
8.86191
9.52521
10.2459
11.0318
11.8923
12.8384
13.8834
15.042
16.3288
17.7547
19.3193
20.994
22.69
24.1874
25.7044
27.2902
28.9555
30.7048
32.5413
34.4681
36.4884
38.6052
40.8217
43.141
45.5663
48.1006
50.7472
53.5093
56.3899
59.3922
62.5192
65.7741
69.1597
72.6791
76.335
80.1301
84.0669
88.1477
92.3745
96.7489
101.272
105.946
110.77
115.744
120.867
126.139
131.556
137.116
142.815
148.65
154.614
160.703
166.911
173.232
179.658
186.184
192.804
199.511
206.304
213.178
220.134
227.183
234.24
241.28
248.284
255.229
262.096
268.859
275.496
281.98
288.285
294.384
300.249
305.853
311.168
316.165
320.819
325.104
328.995
332.47
335.509
338.097
340.218
341.864
343.029
343.71
343.91
343.639
342.906
341.729
340.128
338.129
335.76
333.052
330.039
326.757
323.243
319.538
315.677
311.699
307.642
303.54
299.427
295.337
291.297
287.336
283.478
279.745
276.156
272.728
269.473
266.4
263.512
260.811
258.339
256.1
253.99
251.978
250.028
248.107
246.158
244.487
244.339
0.128428
0.0935194
0.0897592
0.0949448
0.104733
0.118027
0.134143
0.152571
0.173344
0.196511
0.222095
0.250083
0.280491
0.313349
0.348706
0.386627
0.427199
0.470542
0.516808
0.566172
0.618839
0.675037
0.735016
0.799048
0.867426
0.940464
1.0185
1.10189
1.191
1.28625
1.38806
1.49687
1.61317
1.73744
1.87024
2.01212
2.16368
2.32556
2.49844
2.68305
2.88015
3.09057
3.31518
3.55494
3.81085
4.08401
4.37562
4.68694
5.01938
5.37447
5.75387
6.15943
6.59317
7.0573
7.5543
8.08684
8.65787
9.27059
9.92845
10.6351
11.3946
12.2108
13.0879
14.0298
15.0394
16.118
17.2634
18.4679
19.7173
20.9923
22.2803
23.613
25.0061
26.4657
27.9953
29.5975
31.2747
33.0294
34.8639
36.7807
38.782
40.8703
43.0479
45.317
47.68
50.1391
52.6964
55.3541
58.1141
60.9785
63.9489
67.0271
70.2147
73.513
76.9231
80.446
84.0823
87.8324
91.6963
95.6736
99.7636
103.965
108.277
112.696
117.221
121.848
126.575
131.397
136.31
141.31
146.392
151.552
156.783
162.082
167.442
172.86
178.328
183.845
189.388
194.924
200.436
205.908
211.324
216.667
221.921
227.066
232.085
236.956
241.661
246.179
250.489
254.572
258.407
261.975
265.257
268.235
270.895
273.222
275.204
276.832
278.098
278.998
279.533
279.704
279.517
278.981
278.108
276.915
275.418
273.64
271.605
269.337
266.864
264.214
261.416
258.5
255.495
252.43
249.331
246.227
243.142
240.1
237.122
234.229
231.436
228.76
226.214
223.806
221.544
219.432
217.472
215.675
214.031
212.492
211.031
209.626
208.269
206.98
206.117
206.661
0.208968
0.140805
0.131403
0.136517
0.148317
0.16409
0.182724
0.203981
0.227801
0.254184
0.283143
0.314693
0.348853
0.38565
0.425129
0.467358
0.51243
0.560466
0.61162
0.666076
0.724043
0.785761
0.851489
0.921514
0.996143
1.0757
1.16055
1.25105
1.34761
1.45064
1.56058
1.67792
1.80314
1.93677
2.07938
2.23154
2.39391
2.56713
2.75193
2.94905
3.15929
3.38352
3.62263
3.87761
4.14948
4.43936
4.74844
5.07798
5.42937
5.80407
6.20366
6.62985
7.08447
7.56946
8.08692
8.63904
9.22813
9.85654
10.5266
11.2407
12.001
12.8095
13.6677
14.577
15.5381
16.5508
17.614
18.7253
19.8816
21.0809
22.3256
23.624
24.9824
26.4046
27.8934
29.451
31.0798
32.7819
34.5595
36.4146
38.3495
40.3661
42.4665
44.6526
46.9264
49.2896
51.744
54.2912
56.9329
59.6703
62.5048
65.4376
68.4696
71.6016
74.8343
78.168
81.6029
85.139
88.7759
92.513
96.3494
100.284
104.315
108.44
112.658
116.966
121.361
125.839
130.398
135.033
139.739
144.512
149.348
154.24
159.184
164.173
169.201
174.255
179.313
184.357
189.373
194.346
199.263
204.109
208.869
213.527
218.067
222.471
226.722
230.802
234.695
238.382
241.845
245.069
248.038
250.735
253.148
255.264
257.073
258.567
259.739
260.587
261.109
261.308
261.188
260.757
260.027
259.009
257.72
256.18
254.408
252.427
250.26
247.933
245.473
242.905
240.256
237.551
234.817
232.077
229.355
226.672
224.048
221.501
219.049
216.703
214.477
212.378
210.412
208.583
206.893
205.339
203.908
202.575
201.318
200.124
198.998
197.996
197.436
198.003
0.309038
0.198826
0.180986
0.18479
0.197047
0.214048
0.23457
0.258114
0.284471
0.313561
0.345361
0.379879
0.417138
0.457176
0.500051
0.545842
0.594655
0.646625
0.701916
0.760722
0.823263
0.889789
0.960573
1.03591
1.11612
1.20155
1.29257
1.38955
1.49292
1.60311
1.72058
1.84583
1.97939
2.12179
2.27363
2.43553
2.60814
2.79217
2.98836
3.19748
3.42038
3.65794
3.9111
4.18084
4.46823
4.7744
5.10052
5.44786
5.81777
6.21166
6.63103
7.07747
7.55265
8.05832
8.59628
9.16843
9.77665
10.4229
11.1089
11.8365
12.6072
13.4225
14.2835
15.1912
16.1462
17.1492
18.2006
19.3009
20.4508
21.652
22.9072
24.2205
25.5955
27.035
28.5416
30.1174
31.7648
33.4858
35.2827
37.1574
39.1121
41.1486
43.269
45.4751
47.7686
50.1512
52.6244
55.1897
57.8483
60.6015
63.4501
66.3951
69.4371
72.5766
75.814
79.1492
82.5824
86.113
89.7407
93.4647
97.284
101.197
105.203
109.3
113.486
117.758
122.114
126.551
131.065
135.652
140.308
145.028
149.807
154.639
159.517
164.435
169.385
174.346
179.302
184.24
189.145
194.006
198.808
203.539
208.184
212.728
217.155
221.45
225.597
229.579
233.379
236.98
240.368
243.525
246.438
249.091
251.471
253.568
255.37
256.871
258.065
258.948
259.518
259.778
259.732
259.388
258.754
257.843
256.67
255.254
253.612
251.767
249.741
247.558
245.243
242.822
240.319
237.761
235.172
232.576
229.995
227.451
224.963
222.55
220.227
218.006
215.9
213.916
212.059
210.333
208.736
207.263
205.901
204.633
203.442
202.318
201.275
200.372
199.884
200.273
0.424591
0.264022
0.23517
0.235232
0.246624
0.264261
0.286207
0.311609
0.340071
0.371412
0.405563
0.442513
0.482286
0.524936
0.570538
0.619192
0.671023
0.726184
0.784856
0.847244
0.913582
0.984128
1.05917
1.139
1.22396
1.31439
1.41068
1.51321
1.62242
1.73876
1.86271
1.99476
2.13548
2.28542
2.4452
2.61546
2.79689
2.99021
3.19618
3.41562
3.64939
3.8984
4.16361
4.44603
4.74673
5.06685
5.40758
5.77017
6.15594
6.56627
7.00261
7.46647
7.95941
8.48307
9.03909
9.62919
10.2551
10.9184
11.6209
12.3642
13.1497
13.9789
14.853
15.7733
16.7411
17.7575
18.8241
19.9424
21.1143
22.3423
23.6289
24.9771
26.3898
27.8695
29.4187
31.0398
32.7351
34.5068
36.3572
38.2885
40.3027
42.402
44.5884
46.8636
49.2295
51.6877
54.2397
56.8868
59.6303
62.4711
65.4102
68.4482
71.5856
74.8227
78.1596
81.5963
85.1324
88.7677
92.5013
96.3327
100.261
104.284
108.402
112.612
116.913
121.302
125.777
130.334
134.971
139.682
144.463
149.31
154.215
159.173
164.176
169.217
174.28
179.348
184.405
189.439
194.437
199.387
204.276
209.091
213.817
218.439
222.944
227.316
231.538
235.594
239.468
243.145
246.609
249.843
252.834
255.567
258.03
260.21
262.098
263.687
264.97
265.944
266.606
266.96
267.007
266.757
266.216
265.398
264.316
262.988
261.433
259.671
257.724
255.616
253.373
251.019
248.578
246.077
243.542
240.995
238.458
235.952
233.501
231.119
228.824
226.626
224.538
222.567
220.718
218.993
217.39
215.902
214.518
213.224
212.005
210.852
209.781
208.845
208.27
208.365
0.547138
0.331774
0.288902
0.284415
0.294595
0.312535
0.335561
0.362461
0.392649
0.42584
0.461908
0.50082
0.542601
0.587313
0.635052
0.685941
0.740127
0.797784
0.859111
0.924328
0.993682
1.06744
1.14589
1.22934
1.31812
1.41259
1.51314
1.62015
1.73408
1.85536
1.9845
2.12201
2.26846
2.42442
2.59052
2.76743
2.95585
3.15652
3.37024
3.59783
3.84017
4.0982
4.37289
4.66527
4.97644
5.30752
5.65972
6.03429
6.43254
6.85584
7.30562
7.78334
8.29053
8.82877
9.39967
10.0049
10.646
11.3248
12.0429
12.8019
13.6035
14.4493
15.3409
16.2798
17.2679
18.3069
19.3988
20.5456
21.7499
23.014
24.3408
25.7329
27.193
28.7239
30.3282
32.0083
33.7668
35.6063
37.5291
39.5377
41.6344
43.8214
46.1009
48.4749
50.9453
53.5138
56.1821
58.9515
61.8231
64.7982
67.8773
71.0611
74.3501
77.7444
81.244
84.8487
88.5581
92.3718
96.289
100.309
104.431
108.653
112.974
117.394
121.909
126.518
131.217
136.005
140.877
145.828
150.854
155.948
161.104
166.314
171.569
176.862
182.168
187.471
192.76
198.02
203.239
208.406
213.506
218.526
223.453
228.272
232.968
237.526
241.929
246.163
250.21
254.055
257.682
261.077
264.224
267.11
269.721
272.046
274.076
275.801
277.217
278.32
279.107
279.579
279.741
279.599
279.161
278.439
277.446
276.2
274.719
273.024
271.134
269.076
266.875
264.554
262.135
259.651
257.125
254.58
252.038
249.52
247.048
244.638
242.307
240.067
237.929
235.901
233.987
232.189
230.505
228.927
227.445
226.047
224.717
223.448
222.251
221.171
220.383
220.105
0.665524
0.39478
0.339196
0.330491
0.339398
0.357423
0.381237
0.409309
0.44087
0.475535
0.513123
0.553576
0.596911
0.6432
0.692555
0.745118
0.80106
0.860575
0.923879
0.991208
1.06282
1.13898
1.21998
1.30615
1.3978
1.4953
1.59902
1.70937
1.82678
1.95172
2.08467
2.22617
2.37678
2.5371
2.70776
2.88944
3.08287
3.28878
3.508
3.74137
3.98979
4.2542
4.5356
4.83503
5.15359
5.49244
5.85278
6.23589
6.64306
7.07569
7.5352
8.02308
8.54084
9.09009
9.67243
10.2896
10.9431
11.635
12.3667
13.1403
13.9575
14.8202
15.7302
16.6896
17.7005
18.765
19.8856
21.0646
22.3048
23.6089
24.9797
26.4201
27.9331
29.5214
31.188
32.9358
34.7676
36.6861
38.6943
40.7947
42.99
45.2828
47.6756
50.1704
52.7696
55.4751
58.2885
61.2115
64.2453
67.3911
70.6496
74.0214
77.5069
81.1061
84.819
88.6453
92.5845
96.6359
100.799
105.072
109.456
113.947
118.546
123.251
128.059
132.97
137.979
143.084
148.281
153.565
158.929
164.367
169.871
175.431
181.039
186.679
192.325
197.961
203.575
209.154
214.685
220.155
225.551
230.859
236.066
241.156
246.114
250.926
255.575
260.045
264.32
268.386
272.226
275.825
279.17
282.245
285.039
287.539
289.737
291.624
293.194
294.444
295.37
295.975
296.262
296.236
295.906
295.283
294.381
293.215
291.805
290.169
288.326
286.307
284.134
281.831
279.422
276.934
274.392
271.82
269.24
266.674
264.142
261.661
259.248
256.916
254.676
252.535
250.497
248.565
246.735
245.002
243.354
241.779
240.263
238.796
237.385
236.063
234.965
234.251
0.773934
0.452306
0.385183
0.372535
0.380107
0.398
0.422315
0.451228
0.483811
0.519581
0.558306
0.599898
0.644367
0.69179
0.742288
0.796022
0.85318
0.913974
0.978633
1.0474
1.12055
1.19834
1.28107
1.36905
1.46262
1.56211
1.66792
1.78043
1.90008
2.02734
2.16269
2.30667
2.45984
2.62281
2.79622
2.98076
3.17715
3.38616
3.60861
3.84537
4.09733
4.36547
4.65078
4.95434
5.27726
5.62071
5.98591
6.37416
6.78679
7.22521
7.69087
8.1853
8.71008
9.26683
9.85726
10.4831
11.1462
11.8484
12.5916
13.3778
14.2092
15.0877
16.0157
16.9954
18.0294
19.1201
20.2703
21.4828
22.7605
24.1065
25.5239
27.0159
28.5857
30.2365
31.9717
33.7945
35.708
37.7157
39.8206
42.0259
44.3347
46.7498
49.2741
51.9103
54.6607
57.5278
60.5134
63.6193
66.847
70.1978
73.6724
77.2715
80.9954
84.8441
88.8173
92.9148
97.1357
101.479
105.945
110.532
115.238
120.063
125.006
130.064
135.237
140.521
145.915
151.415
157.016
162.713
168.499
174.365
180.303
186.3
192.348
198.414
204.477
210.522
216.535
222.503
228.413
234.249
240
245.651
251.188
256.595
261.858
266.962
271.889
276.624
281.152
285.457
289.526
293.343
296.894
300.166
303.146
305.822
308.188
310.234
311.956
313.348
314.408
315.14
315.546
315.629
315.4
314.869
314.048
312.954
311.607
310.024
308.226
306.238
304.084
301.787
299.373
296.865
294.289
291.669
289.027
286.385
283.762
281.177
278.646
276.181
273.795
271.493
269.283
267.163
265.132
263.183
261.306
259.489
257.717
255.979
254.275
252.629
251.14
249.94
0.871958
0.504022
0.426379
0.41002
0.416178
0.433716
0.458232
0.487647
0.520888
0.557388
0.596863
0.639199
0.684396
0.732531
0.783736
0.838182
0.896069
0.95762
1.02307
1.09267
1.16668
1.24538
1.32905
1.418
1.51255
1.61305
1.71987
1.8334
1.95407
2.08234
2.2187
2.36368
2.51784
2.68179
2.85619
3.04171
3.23909
3.44911
3.6726
3.91042
4.16351
4.43283
4.71942
5.02434
5.34875
5.69383
6.06084
6.4511
6.86599
7.30696
7.77552
8.27325
8.80182
9.36294
9.95842
10.5901
11.26
11.9702
12.7227
13.5197
14.3637
15.257
16.2022
17.202
18.259
19.3764
20.5571
21.8044
23.1215
24.5119
25.9792
27.5269
29.1587
30.8783
32.6895
34.596
36.6016
38.71
40.925
43.2502
45.6891
48.2453
50.9219
53.7221
56.6487
59.7044
62.8916
66.2122
69.6681
73.2605
76.9905
80.8585
84.8649
89.0096
93.2921
97.7118
102.268
106.96
111.785
116.744
121.835
127.057
132.408
137.886
143.491
149.22
155.07
161.038
167.119
173.306
179.592
185.966
192.416
198.93
205.492
212.055
218.603
225.12
231.591
238.003
244.339
250.587
256.732
262.759
268.654
274.401
279.987
285.394
290.606
295.607
300.383
304.919
309.202
313.219
316.956
320.401
323.541
326.365
328.868
331.044
332.887
334.39
335.554
336.382
336.878
337.044
336.89
336.429
335.671
334.634
333.335
331.792
330.024
328.055
325.907
323.604
321.169
318.626
315.999
313.312
310.587
307.845
305.106
302.388
299.706
297.075
294.506
292.005
289.577
287.224
284.942
282.727
280.566
278.449
276.359
274.283
272.218
270.179
268.238
266.509
0.957732
0.549354
0.462389
0.442619
0.447316
0.46429
0.488711
0.518284
0.551815
0.58866
0.628492
0.671175
0.716701
0.765146
0.816648
0.871384
0.92956
0.9914
1.05714
1.12702
1.2013
1.28025
1.36414
1.45328
1.54797
1.64856
1.7554
1.86888
1.98943
2.11749
2.25355
2.39814
2.55182
2.7152
2.88893
3.0737
3.27025
3.47937
3.70188
3.93867
4.19069
4.45892
4.7444
5.04825
5.37162
5.71575
6.08192
6.47152
6.88596
7.32677
7.79554
8.29394
8.82374
9.38678
9.98501
10.6205
11.2953
12.0118
12.7723
13.5792
14.4353
15.3433
16.306
17.3266
18.4082
19.5541
20.7679
22.0533
23.414
24.854
26.3773
27.988
29.6904
31.4887
33.3874
35.3907
37.503
39.7288
42.0722
44.5377
47.1292
49.8509
52.7065
55.6997
58.8338
62.112
65.5368
69.1108
72.8359
76.7135
80.7448
84.9304
89.2701
93.7638
98.4107
103.21
108.16
113.26
118.508
123.903
129.444
135.128
140.954
146.922
153.028
159.271
165.649
172.157
178.791
185.544
192.406
199.364
206.405
213.512
220.651
227.772
234.861
241.9
248.874
255.768
262.565
269.251
275.811
282.228
288.489
294.577
300.479
306.178
311.656
316.897
321.888
326.617
331.071
335.24
339.114
342.678
345.919
348.831
351.411
353.656
355.56
357.114
358.324
359.194
359.727
359.93
359.812
359.384
358.657
357.647
356.369
354.842
353.082
351.111
348.95
346.62
344.146
341.549
338.852
336.078
333.249
330.386
327.507
324.631
321.774
318.947
316.163
313.428
310.747
308.122
305.548
303.02
300.528
298.059
295.598
293.129
290.646
288.158
285.713
283.422
1.03022
0.587968
0.493004
0.470186
0.473423
0.489655
0.513708
0.543111
0.576567
0.613377
0.653177
0.695816
0.741282
0.789654
0.841073
0.895718
0.953792
1.01551
1.0811
1.15079
1.22483
1.30346
1.38695
1.47559
1.56968
1.66955
1.77554
1.88803
2.00745
2.13423
2.26885
2.41184
2.56376
2.72522
2.89686
3.07938
3.27354
3.48011
3.69996
3.93397
4.18311
4.44838
4.73086
5.03168
5.35206
5.69325
6.05662
6.4436
6.85569
7.29451
7.76175
8.25921
8.7888
9.35253
9.95254
10.5911
11.2705
11.9934
12.7624
13.5803
14.4501
15.375
16.3582
17.4033
18.5139
19.6939
20.9474
22.2785
23.6916
25.1914
26.7824
28.4695
30.2576
32.1516
34.1567
36.2779
38.5203
40.8888
43.3885
46.0244
48.8012
51.7236
54.796
58.0226
61.4071
64.9531
68.6638
72.5416
76.589
80.8074
85.1981
89.7614
94.497
99.4039
104.481
109.727
115.139
120.717
126.458
132.36
138.421
144.64
151.014
157.541
164.221
171.051
178.028
185.149
192.409
199.8
207.31
214.926
222.633
230.406
238.167
245.891
253.56
261.156
268.661
276.059
283.332
290.463
297.438
304.238
310.849
317.256
323.444
329.399
335.099
340.527
345.673
350.527
355.08
359.322
363.248
366.848
370.101
373.01
375.575
377.793
379.664
381.186
382.363
383.201
383.703
383.879
383.737
383.287
382.54
381.511
380.213
378.663
376.877
374.873
372.67
370.289
367.75
365.077
362.289
359.408
356.455
353.449
350.41
347.354
344.297
341.25
338.224
335.227
332.262
329.33
326.429
323.551
320.687
317.824
314.945
312.037
309.088
306.104
303.115
300.231
1.08927
0.619821
0.518211
0.49275
0.494577
0.509941
0.533394
0.562331
0.595379
0.631794
0.671194
0.713423
0.75847
0.806422
0.857423
0.91165
0.969294
1.03055
1.09563
1.16475
1.23812
1.31597
1.39857
1.48617
1.57906
1.67756
1.782
1.89276
2.01024
2.13489
2.26717
2.40761
2.55677
2.71525
2.88373
3.06289
3.25349
3.45635
3.67233
3.90234
4.14738
4.40849
4.68679
4.98344
5.29973
5.63698
5.99663
6.3802
6.78931
7.2257
7.69123
8.18784
8.71766
9.2829
9.88597
10.5294
11.2158
11.9482
12.7296
13.5631
14.4523
15.4008
16.4123
17.491
18.6411
19.8671
21.1738
22.5659
24.0488
25.6276
27.3079
29.0953
30.9956
33.0146
35.1582
37.4322
39.8424
42.3946
45.0945
47.9477
50.9599
54.136
57.4813
61.0001
64.6969
68.5754
72.6389
76.8903
81.3318
85.9651
90.7912
95.8105
101.022
106.423
112.011
117.785
123.742
129.879
136.194
142.683
149.345
156.176
163.174
170.338
177.664
185.152
192.799
200.602
208.556
216.651
224.876
233.216
241.649
250.121
258.539
266.89
275.156
283.317
291.356
299.254
306.991
314.551
321.915
329.065
335.985
342.659
349.075
355.223
361.071
366.604
371.816
376.7
381.247
385.453
389.312
392.818
395.966
398.755
401.189
403.27
405
406.383
407.426
408.134
408.515
408.577
408.33
407.783
406.949
405.837
404.463
402.839
400.98
398.901
396.62
394.154
391.523
388.745
385.842
382.831
379.732
376.564
373.344
370.088
366.809
363.52
360.23
356.945
353.67
350.404
347.144
343.884
340.614
337.32
333.987
330.6
327.146
323.628
320.062
316.559
1.1355
0.645145
0.538188
0.510513
0.511039
0.525473
0.548164
0.576404
0.608766
0.644483
0.683165
0.724666
0.768993
0.816245
0.86657
0.920134
0.977108
1.03767
1.10199
1.17025
1.24266
1.31943
1.40078
1.48697
1.57826
1.67497
1.77741
1.88596
2.001
2.12298
2.25237
2.38969
2.53552
2.69047
2.8552
3.03045
3.21698
3.41563
3.6273
3.85295
4.0936
4.35037
4.62442
4.91702
5.22951
5.56335
5.92006
6.30133
6.70894
7.1448
7.61099
8.10971
8.64334
9.21443
9.82572
10.4801
11.1808
11.9311
12.7345
13.595
14.5164
15.5031
16.5596
17.6906
18.9013
20.1968
21.5829
23.0653
24.65
26.3434
28.1519
30.0821
32.141
34.3353
36.672
39.1579
41.799
44.6019
47.573
50.7186
54.0448
57.5571
61.261
65.1612
69.2621
73.5674
78.0805
82.8037
87.7392
92.8883
98.2519
103.83
109.622
115.62
121.821
128.222
134.82
141.612
148.593
155.759
163.107
170.634
178.336
186.211
194.256
202.47
210.85
219.394
228.096
236.948
245.937
255.045
264.237
273.39
282.452
291.411
300.248
308.945
317.481
325.835
333.988
341.919
349.609
357.039
364.191
371.048
377.596
383.82
389.701
395.225
400.385
405.174
409.588
413.626
417.284
420.565
423.469
426
428.166
429.975
431.432
432.548
433.33
433.789
433.935
433.776
433.324
432.587
431.578
430.306
428.783
427.021
425.032
422.828
420.424
417.833
415.074
412.162
409.114
405.948
402.681
399.329
395.907
392.431
388.911
385.36
381.785
378.192
374.583
370.959
367.315
363.646
359.94
356.185
352.367
348.469
344.478
340.396
336.226
332.085
1.17025
0.664399
0.553302
0.523869
0.523277
0.53682
0.558692
0.586109
0.617611
0.652417
0.690155
0.730708
0.774117
0.820505
0.87002
0.922808
0.979011
1.03877
1.10222
1.16954
1.24088
1.31644
1.39643
1.48109
1.57067
1.66548
1.76582
1.87206
1.98459
2.10385
2.23033
2.36457
2.50714
2.6587
2.81993
2.9916
3.17451
3.36956
3.5777
3.79996
4.03745
4.29136
4.56299
4.85371
5.16504
5.49857
5.85604
6.23935
6.65053
7.0918
7.56554
8.07435
8.62102
9.20859
9.8403
10.5197
11.2505
12.0368
12.883
13.7937
14.7738
15.8284
16.9629
18.1832
19.4953
20.9057
22.4211
24.0485
25.7951
27.6683
29.6759
31.8256
34.1255
36.5838
39.2089
42.0087
44.9882
48.1543
51.5142
55.0744
58.8413
62.8202
67.0165
71.4343
76.0776
80.9495
86.0522
91.3873
96.9556
102.758
108.793
115.064
121.572
128.293
135.228
142.373
149.724
157.274
165.02
172.956
181.078
189.38
197.86
206.512
215.334
224.324
233.48
242.799
252.276
261.903
271.67
281.541
291.378
301.119
310.738
320.217
329.535
338.671
347.604
356.311
364.771
372.962
380.862
388.452
395.712
402.625
409.174
415.345
421.123
426.497
431.459
436.007
440.138
443.854
447.159
450.06
452.563
454.68
456.422
457.803
458.836
459.535
459.914
459.985
459.763
459.258
458.483
457.447
456.162
454.637
452.881
450.906
448.721
446.334
443.754
440.994
438.066
434.984
431.762
428.413
424.953
421.394
417.751
414.035
410.256
406.424
402.545
398.624
394.663
390.66
386.61
382.508
378.343
374.103
369.773
365.338
360.785
356.115
351.318
346.525
1.19541
0.678235
0.564121
0.533456
0.532053
0.544894
0.566056
0.592698
0.62333
0.657172
0.693886
0.733424
0.775897
0.821459
0.870244
0.922359
0.977903
1.03698
1.0997
1.16619
1.23663
1.31118
1.39004
1.47345
1.56165
1.65494
1.75363
1.85809
1.96872
2.08599
2.2104
2.34254
2.48302
2.63253
2.79184
2.96176
3.14319
3.3371
3.54458
3.76676
4.00491
4.26041
4.53473
4.8295
5.14648
5.48757
5.85486
6.25059
6.67723
7.1375
7.63435
8.17099
8.75093
9.37795
10.0562
10.7901
11.5846
12.4447
13.3763
14.3852
15.478
16.661
17.9405
19.324
20.8192
22.4341
24.1769
26.0561
28.0804
30.2585
32.5992
35.1116
37.8047
40.6879
43.7712
47.0676
50.573
54.2948
58.2411
62.4179
66.8305
71.4832
76.3795
81.5222
86.9133
92.554
98.4444
104.584
110.97
117.602
124.477
131.592
138.942
146.517
154.309
162.313
170.519
178.921
187.513
196.289
205.245
214.375
223.672
233.13
242.746
252.515
262.435
272.504
282.717
293.072
303.539
313.965
324.267
334.429
344.43
354.25
363.868
373.261
382.407
391.283
399.865
408.13
416.056
423.622
430.806
437.592
443.962
449.903
455.401
460.447
465.036
469.167
472.84
476.062
478.842
481.191
483.122
484.653
485.802
486.589
487.034
487.156
486.975
486.51
485.777
484.79
483.565
482.111
480.44
478.561
476.481
474.21
471.755
469.121
466.31
463.33
460.191
456.901
453.471
449.912
446.233
442.446
438.56
434.586
430.53
426.401
422.202
417.937
413.606
409.206
404.733
400.178
395.533
390.784
385.918
380.922
375.783
370.502
365.064
359.605
1.21256
0.687417
0.571511
0.540314
0.53861
0.551173
0.571997
0.598188
0.628216
0.661289
0.697131
0.735857
0.777715
0.822864
0.871371
0.923273
0.97862
1.03748
1.09997
1.16621
1.23636
1.31062
1.38919
1.4723
1.56022
1.65324
1.75172
1.85602
1.9666
2.08397
2.20871
2.34146
2.48294
2.63396
2.79539
2.96819
3.15343
3.35225
3.56595
3.79593
4.04375
4.31112
4.59993
4.91224
5.25035
5.61678
6.01428
6.44575
6.91449
7.42418
7.97883
8.58285
9.24107
9.95873
10.7416
11.5958
12.5281
13.5458
14.6567
15.8694
17.1938
18.6379
20.2081
21.9149
23.7683
25.7782
27.9549
30.3081
32.8476
35.5832
38.524
41.679
45.0568
48.6658
52.5139
56.6082
60.9509
65.5459
70.397
75.5069
80.8772
86.5085
92.4007
98.5533
104.965
111.633
118.554
125.724
133.136
140.787
148.669
156.777
165.107
173.649
182.393
191.33
200.449
209.741
219.2
228.821
238.606
248.544
258.623
268.835
279.174
289.632
300.203
310.89
321.673
332.558
343.339
353.963
364.42
374.695
384.77
394.624
404.237
413.586
422.647
431.397
439.811
447.866
455.539
462.808
469.652
476.053
481.995
487.463
492.448
496.941
500.939
504.441
507.453
509.985
512.048
513.66
514.84
515.61
515.995
516.021
515.714
515.102
514.209
513.059
511.674
510.072
508.27
506.281
504.115
501.781
499.284
496.631
493.824
490.864
487.753
484.493
481.09
477.547
473.871
470.066
466.14
462.099
457.949
453.697
449.348
444.904
440.37
435.745
431.029
426.217
421.304
416.281
411.139
405.866
400.448
394.875
389.135
383.231
377.142
371.014
1.22513
0.693254
0.577043
0.546327
0.545148
0.558205
0.579447
0.605942
0.636104
0.669036
0.704583
0.743338
0.785685
0.831548
0.880855
0.933592
0.989797
1.04956
1.11301
1.18034
1.25174
1.32746
1.40775
1.49289
1.58319
1.67898
1.78064
1.88863
2.0035
2.12587
2.25649
2.39619
2.54589
2.70666
2.87964
3.06611
3.26748
3.48533
3.72141
3.97771
4.25643
4.56006
4.89138
5.25353
5.65001
6.0848
6.56252
7.08713
7.66393
8.29885