/*--------------------------------*- C++ -*----------------------------------*\
| =========                 |                                                 |
| \\      /  F ield         | OpenFOAM: The Open Source CFD Toolbox           |
|  \\    /   O peration     | Version:  1.4.2                                 |
|   \\  /    A nd           | Web:      http://www.openfoam.org               |
|    \\/     M anipulation  |                                                 |
\*---------------------------------------------------------------------------*/
FoamFile
{
    version     2.0;
    format      ascii;
    class       volScalarField;
    object      k;
    location    "750";
}
// * * * * * * * * * * * * * * * * * * * * * * * * * * * * * * * * * * * * * //

dimensions      [0 2 -2 0 0 0 0];

internalField   nonuniform List<scalar> 
12225
(
0.315115
0.271063
0.237885
0.212505
0.1929
0.17769
0.165905
0.156845
0.14999
0.144947
0.141411
0.139138
0.137933
0.137633
0.138097
0.139208
0.140862
0.143166
0.365357
0.357609
0.353827
0.353686
0.356737
0.362618
0.371004
0.3816
0.394137
0.408365
0.424048
0.440955
0.458864
0.477557
0.496816
0.51642
0.536064
0.556339
0.370187
0.364636
0.360183
0.356898
0.354768
0.35374
0.353744
0.354696
0.356512
0.359109
0.362404
0.366318
0.370768
0.375668
0.38092
0.386398
0.391913
0.39732
0.371735
0.367478
0.363488
0.359996
0.357015
0.354545
0.352574
0.351071
0.350002
0.349327
0.349007
0.349002
0.349274
0.349779
0.350474
0.351306
0.352211
0.353151
0.372438
0.36905
0.36559
0.362328
0.359334
0.35663
0.354215
0.352079
0.350207
0.348579
0.347176
0.345975
0.344956
0.344095
0.343369
0.342751
0.34222
0.341762
0.37275
0.369943
0.366992
0.364059
0.36125
0.35861
0.356154
0.353885
0.351797
0.349883
0.34813
0.346528
0.345062
0.343721
0.342491
0.341358
0.340312
0.339357
0.372878
0.37041
0.367854
0.365269
0.362722
0.360258
0.357904
0.355675
0.353577
0.351609
0.349766
0.348042
0.34643
0.34492
0.343506
0.34218
0.340936
0.339788
0.372918
0.370599
0.368258
0.365906
0.363576
0.361295
0.359086
0.356964
0.354939
0.353014
0.35119
0.349465
0.347836
0.346296
0.344841
0.343464
0.342165
0.340958
0.372933
0.370688
0.368473
0.366277
0.364109
0.361983
0.359911
0.357906
0.355975
0.354124
0.352356
0.35067
0.349066
0.347541
0.346091
0.344712
0.343403
0.342183
0.372937
0.37073
0.368595
0.36651
0.364471
0.362481
0.360543
0.358662
0.356844
0.355091
0.353407
0.351792
0.350246
0.348768
0.347356
0.346007
0.344722
0.343518
0.372937
0.370746
0.368652
0.366634
0.364684
0.362795
0.360966
0.359196
0.357485
0.355835
0.354244
0.352715
0.351246
0.349837
0.348485
0.34719
0.345952
0.344789
0.372936
0.370748
0.36867
0.366685
0.364785
0.362961
0.361206
0.359517
0.357892
0.356327
0.354821
0.353374
0.351982
0.350645
0.349361
0.348129
0.346949
0.34584
0.372936
0.370745
0.36867
0.366698
0.364819
0.363026
0.361312
0.359672
0.358101
0.356595
0.355151
0.353765
0.352435
0.351159
0.349935
0.34876
0.347636
0.346579
0.372937
0.370743
0.368665
0.366694
0.36482
0.363038
0.361341
0.359723
0.358178
0.356703
0.355293
0.353945
0.352654
0.351418
0.350234
0.349101
0.348018
0.347001
0.372939
0.370742
0.368662
0.366687
0.364813
0.363031
0.361337
0.359724
0.358188
0.356724
0.355328
0.353995
0.352722
0.351505
0.350343
0.349231
0.348172
0.347179
0.372943
0.370744
0.368661
0.366683
0.364805
0.363021
0.361325
0.359711
0.358175
0.356712
0.355317
0.353987
0.352719
0.351508
0.350351
0.349247
0.348197
0.347214
0.372948
0.370749
0.368663
0.366683
0.364802
0.363015
0.361315
0.359699
0.358159
0.356694
0.355297
0.353965
0.352695
0.351482
0.350326
0.349222
0.348172
0.347191
0.372951
0.370752
0.368664
0.366683
0.3648
0.363011
0.361309
0.35969
0.358148
0.356679
0.355279
0.353944
0.35267
0.351455
0.350295
0.349188
0.348135
0.347151
0.372947
0.370748
0.368661
0.366679
0.364796
0.363006
0.361303
0.359681
0.358136
0.356663
0.355258
0.353918
0.352638
0.351416
0.350248
0.349133
0.348072
0.347079
0.372942
0.370743
0.368656
0.366675
0.36479
0.362997
0.361289
0.359661
0.358107
0.356624
0.355207
0.353851
0.352555
0.351315
0.350128
0.348992
0.347909
0.346894
0.372938
0.370738
0.368651
0.366666
0.364774
0.362969
0.361244
0.359594
0.358014
0.356499
0.355047
0.353654
0.352317
0.351034
0.349802
0.348621
0.347492
0.346431
0.372934
0.370732
0.368636
0.366632
0.364712
0.362869
0.361095
0.359387
0.357741
0.356155
0.354627
0.353155
0.351738
0.350373
0.349061
0.3478
0.346593
0.345459
0.372927
0.37071
0.36858
0.36652
0.364521
0.36258
0.360694
0.358864
0.357089
0.355371
0.353711
0.35211
0.350567
0.349082
0.347655
0.346285
0.344977
0.343748
0.37291
0.370639
0.368408
0.366204
0.36403
0.361894
0.359802
0.357765
0.355788
0.353878
0.352037
0.350268
0.348572
0.346948
0.345396
0.343914
0.342504
0.341187
0.372856
0.370429
0.367957
0.365456
0.362964
0.36051
0.358116
0.3558
0.353574
0.351443
0.34941
0.347475
0.345636
0.34389
0.342235
0.340667
0.339185
0.337808
0.372693
0.369884
0.366925
0.36392
0.360959
0.358089
0.355337
0.35272
0.350244
0.347909
0.345713
0.343652
0.34172
0.33991
0.338216
0.336631
0.335151
0.333789
0.37223
0.368599
0.364817
0.361096
0.357537
0.354185
0.351059
0.348165
0.345497
0.343047
0.340806
0.33876
0.336896
0.335202
0.333663
0.332268
0.331004
0.329876
0.370946
0.365685
0.36055
0.355801
0.35149
0.347644
0.344266
0.341333
0.338816
0.336679
0.334887
0.333407
0.332206
0.331256
0.330529
0.33
0.329646
0.329455
0.366354
0.35712
0.349251
0.3429
0.337988
0.334391
0.331962
0.330545
0.330001
0.330208
0.331059
0.332461
0.334334
0.33661
0.339225
0.342127
0.345262
0.348624
0.329178
0.293648
0.265348
0.242403
0.223549
0.20789
0.194768
0.183687
0.174271
0.166227
0.159326
0.153385
0.148254
0.143816
0.139969
0.136633
0.133739
0.131229
0.000941911
0.00117059
0.00147627
0.00179052
0.00208741
0.00236503
0.00263158
0.00290215
0.00319695
0.00350877
0.00383393
0.00416914
0.00451429
0.00487264
0.00525223
0.00564491
0.0060479
0.00646528
0.00689935
0.00735186
0.00782448
0.00831892
0.00883697
0.00938044
0.0099512
0.0105511
0.0111822
0.0118462
0.0125453
0.0132813
0.0140563
0.0148721
0.0157309
0.0166347
0.0175854
0.0185852
0.0196363
0.0207407
0.0219006
0.0231184
0.0243965
0.0257371
0.027143
0.0286166
0.0301608
0.0317785
0.0334727
0.0352469
0.0371047
0.0390499
0.0410872
0.0432215
0.0454586
0.0478056
0.0502709
0.052865
0.0556013
0.0584973
0.0615759
0.0648679
0.0684153
0.0722757
0.076529
0.0812872
0.0867085
0.0930192
0.100546
0.10977
0.121404
0.136534
0.143059
0.149441
0.156017
0.162806
0.169814
0.177044
0.184499
0.192183
0.200099
0.208249
0.216635
0.22526
0.234125
0.243234
0.252587
0.262186
0.272032
0.282128
0.292474
0.303071
0.313921
0.325023
0.336378
0.347988
0.35985
0.371965
0.384331
0.396946
0.409806
0.422908
0.436246
0.449812
0.463598
0.477594
0.491787
0.506163
0.520705
0.535395
0.550214
0.565142
0.580157
0.595237
0.610362
0.625512
0.640672
0.655833
0.670996
0.686188
0.701387
0.716403
0.731207
0.745764
0.760037
0.773987
0.787573
0.800752
0.81348
0.82571
0.837397
0.848493
0.85895
0.868721
0.877761
0.886024
0.893468
0.900054
0.905745
0.910512
0.914327
0.917173
0.919035
0.919909
0.919796
0.918709
0.916666
0.913695
0.909832
0.90512
0.899611
0.893364
0.886443
0.878914
0.870849
0.862326
0.85342
0.844206
0.834758
0.825151
0.815454
0.805736
0.796058
0.78648
0.777053
0.767829
0.75885
0.750154
0.741775
0.733738
0.726064
0.718757
0.711804
0.705195
0.699172
0.693454
0.687961
0.682618
0.677373
0.671887
0.666389
0.658895
0.00126557
0.0020338
0.00277804
0.0034513
0.00408482
0.00470514
0.00533412
0.00598521
0.00664814
0.00733359
0.00804603
0.00877975
0.00953997
0.0103295
0.0111494
0.0119998
0.0128808
0.0137934
0.014739
0.0157195
0.016737
0.0177938
0.0188927
0.0200363
0.0212277
0.02247
0.0237664
0.0251201
0.0265346
0.0280133
0.0295597
0.0311774
0.0328701
0.0346414
0.0364951
0.038435
0.0404653
0.0425897
0.0448127
0.0471384
0.0495711
0.0521156
0.0547765
0.0575587
0.0604674
0.0635079
0.0666859
0.0700075
0.0734788
0.0771069
0.0808988
0.0848627
0.089007
0.0933412
0.097876
0.102623
0.107596
0.11281
0.118282
0.124032
0.130085
0.136468
0.143211
0.15035
0.157923
0.165964
0.174497
0.183514
0.192935
0.202528
0.211755
0.221168
0.230885
0.240933
0.251324
0.262067
0.273169
0.284636
0.296475
0.308693
0.321296
0.334288
0.347677
0.361467
0.375664
0.390273
0.405301
0.420751
0.43663
0.452942
0.469694
0.48689
0.504536
0.522637
0.541198
0.560224
0.579719
0.599689
0.620134
0.641059
0.662464
0.684348
0.706709
0.729543
0.752842
0.776597
0.800796
0.825423
0.850461
0.875889
0.901685
0.927823
0.954277
0.981019
1.00802
1.03526
1.06269
1.0903
1.11782
1.14528
1.17262
1.19981
1.22677
1.25343
1.27971
1.30554
1.33083
1.35549
1.37943
1.40254
1.42473
1.44589
1.46592
1.48471
1.50216
1.51817
1.53265
1.54551
1.55666
1.56605
1.57361
1.57931
1.58311
1.58501
1.58502
1.58316
1.57948
1.57403
1.56691
1.55822
1.54806
1.53656
1.52386
1.51011
1.49547
1.48008
1.46412
1.44774
1.43109
1.41434
1.39763
1.38109
1.36486
1.34904
1.33375
1.31909
1.30512
1.29191
1.2795
1.26791
1.25716
1.24722
1.23813
1.22987
1.22236
1.2155
1.20922
1.20311
1.19674
1.18569
0.00193737
0.00318084
0.00428702
0.00530251
0.00628088
0.00725607
0.0082289
0.00919139
0.0101573
0.0111371
0.0121379
0.0131639
0.0142181
0.0153027
0.0164192
0.0175694
0.0187547
0.0199769
0.0212383
0.0225416
0.0238899
0.0252866
0.0267353
0.0282399
0.0298042
0.0314325
0.0331289
0.0348979
0.0367439
0.0386714
0.040685
0.0427895
0.0449896
0.0472903
0.0496965
0.0522135
0.0548463
0.0576005
0.0604816
0.0634954
0.0666476
0.0699445
0.0733923
0.0769976
0.0807673
0.0847085
0.0888287
0.0931359
0.0976382
0.102345
0.107264
0.112407
0.117784
0.123405
0.129284
0.135433
0.141866
0.148598
0.155645
0.163024
0.170752
0.178846
0.187324
0.196203
0.205496
0.215209
0.225339
0.235866
0.246747
0.257929
0.26938
0.281193
0.293409
0.306048
0.319122
0.332642
0.346617
0.361056
0.375966
0.391356
0.407234
0.423606
0.44048
0.457863
0.47576
0.494179
0.513125
0.532604
0.552622
0.573185
0.594297
0.615965
0.638194
0.660989
0.684355
0.708297
0.732819
0.757926
0.783621
0.809906
0.836782
0.864249
0.892305
0.920946
0.950165
0.979952
1.01029
1.04118
1.07258
1.10448
1.13685
1.16966
1.20288
1.23648
1.27043
1.30467
1.3392
1.37382
1.40843
1.443
1.47747
1.51177
1.54582
1.57953
1.61283
1.6456
1.67774
1.70915
1.7397
1.76926
1.79773
1.82495
1.85081
1.87516
1.89788
1.91883
1.93789
1.95494
1.96989
1.98263
1.99308
2.00119
2.00691
2.01023
2.01114
2.00968
2.00589
1.99985
1.99165
1.98142
1.96931
1.95546
1.94005
1.92329
1.90535
1.88645
1.8668
1.8466
1.82607
1.8054
1.78479
1.76442
1.74445
1.72505
1.70635
1.68847
1.67152
1.65557
1.64068
1.62689
1.61422
1.60266
1.59216
1.58279
1.57444
1.56701
1.56038
1.55417
1.54773
1.53812
0.00268062
0.00448003
0.00603187
0.00744367
0.0087778
0.0100531
0.0112804
0.0124831
0.0136794
0.0148828
0.0161034
0.017348
0.0186213
0.0199267
0.0212668
0.022644
0.0240607
0.0255195
0.0270234
0.028576
0.030181
0.0318425
0.033565
0.0353531
0.0372115
0.0391452
0.0411593
0.0432589
0.0454494
0.0477362
0.050125
0.0526213
0.0552311
0.0579602
0.060815
0.0638016
0.0669265
0.0701965
0.0736183
0.0771992
0.0809463
0.0848673
0.0889701
0.0932626
0.0977535
0.102451
0.107366
0.112506
0.117882
0.123504
0.129384
0.135532
0.141962
0.148685
0.155715
0.163066
0.170752
0.178787
0.187187
0.195967
0.205142
0.214724
0.224726
0.23516
0.246034
0.257351
0.269114
0.281317
0.293954
0.30702
0.320525
0.3345
0.348969
0.363946
0.379444
0.395476
0.412051
0.429181
0.446875
0.465142
0.483991
0.50343
0.523467
0.544108
0.565361
0.587232
0.609726
0.632847
0.656602
0.680994
0.706026
0.731703
0.758029
0.785005
0.812636
0.840923
0.869869
0.899475
0.929744
0.960676
0.992271
1.02453
1.05744
1.09101
1.12522
1.16007
1.19554
1.23161
1.26826
1.30548
1.34322
1.38146
1.42016
1.45928
1.49878
1.53861
1.57873
1.6189
1.65907
1.6992
1.73922
1.77906
1.81861
1.85781
1.89653
1.93468
1.97214
2.00878
2.04448
2.07908
2.11246
2.14445
2.17491
2.20369
2.23063
2.25557
2.27837
2.29889
2.317
2.33259
2.34555
2.35582
2.36333
2.36805
2.36998
2.36914
2.36558
2.35938
2.35066
2.33955
2.32621
2.31083
2.2936
2.27476
2.25454
2.23318
2.21091
2.18801
2.1647
2.14123
2.11784
2.09471
2.07208
2.0501
2.02895
2.00877
1.98966
1.97173
1.95504
1.93963
1.92553
1.91274
1.9012
1.89089
1.88177
1.8737
1.86652
1.85965
1.85296
1.8443
0.00347978
0.00591794
0.00795299
0.00974984
0.0113783
0.0128918
0.0143343
0.0157367
0.0171218
0.0185064
0.0199033
0.0213217
0.0227685
0.0242487
0.0257663
0.0273248
0.0289275
0.030578
0.03228
0.0340375
0.0358549
0.0377369
0.0396885
0.0417148
0.0438212
0.0460132
0.0482964
0.0506767
0.0531602
0.0557529
0.0584612
0.0612917
0.0642511
0.0673462
0.0705843
0.0739727
0.077519
0.081231
0.0851167
0.0891844
0.0934429
0.0979008
0.102568
0.107452
0.112565
0.117917
0.123517
0.129377
0.135509
0.141923
0.148634
0.155653
0.162993
0.170669
0.178694
0.187084
0.195853
0.205015
0.214586
0.22458
0.235012
0.245894
0.257239
0.269057
0.281359
0.294151
0.307443
0.321239
0.335548
0.350378
0.365745
0.381669
0.398168
0.415256
0.432948
0.451256
0.470194
0.489773
0.510004
0.530898
0.552465
0.574714
0.597652
0.621289
0.645628
0.670678
0.696441
0.722922
0.750125
0.77805
0.806701
0.836077
0.86618
0.897009
0.928564
0.960844
0.99385
1.02758
1.06203
1.0972
1.13309
1.16969
1.20701
1.24503
1.28374
1.32314
1.36322
1.40394
1.4453
1.48726
1.52979
1.57286
1.61642
1.66043
1.70484
1.7496
1.79461
1.83966
1.88472
1.92973
1.97462
2.01931
2.0637
2.10771
2.15123
2.19414
2.23633
2.27766
2.31799
2.35717
2.39505
2.43147
2.46627
2.49926
2.53028
2.55916
2.58574
2.60984
2.63133
2.65007
2.66594
2.67885
2.68871
2.69548
2.69916
2.69974
2.69729
2.69187
2.68359
2.67262
2.65911
2.64328
2.62532
2.60551
2.58409
2.56134
2.53752
2.51291
2.48781
2.46246
2.43713
2.41204
2.38744
2.36352
2.34046
2.31842
2.29753
2.27789
2.25959
2.24266
2.22715
2.21304
2.20029
2.18884
2.1786
2.16937
2.16093
2.15278
2.14506
2.13614
0.00430124
0.00740899
0.00991884
0.0120314
0.0139082
0.0156378
0.0172743
0.0188542
0.0204042
0.0219445
0.0234905
0.025054
0.026644
0.0282676
0.0299305
0.0316376
0.0333934
0.0352023
0.0370689
0.0389979
0.0409941
0.0430627
0.045209
0.0474384
0.0497568
0.05217
0.054684
0.0573052
0.0600399
0.062895
0.0658774
0.0689942
0.072253
0.0756614
0.0792274
0.0829593
0.0868656
0.0909551
0.095237
0.0997206
0.104416
0.109332
0.114481
0.119872
0.125516
0.131426
0.137613
0.144089
0.150866
0.157959
0.16538
0.173144
0.181264
0.189756
0.198634
0.207914
0.217611
0.227742
0.238321
0.249363
0.260885
0.272899
0.28542
0.298461
0.312035
0.326154
0.34083
0.356077
0.371908
0.388337
0.405382
0.423061
0.441392
0.46039
0.480073
0.500454
0.521549
0.543372
0.565935
0.58925
0.61333
0.638183
0.663819
0.690245
0.717469
0.745495
0.774327
0.803967
0.834417
0.865677
0.897746
0.930621
0.964299
0.998777
1.03405
1.07011
1.10696
1.14459
1.183
1.22217
1.26211
1.30282
1.34427
1.38647
1.42942
1.47309
1.51747
1.56255
1.60829
1.65468
1.70168
1.74925
1.79733
1.84589
1.89487
1.94422
1.99371
2.04327
2.09284
2.14235
2.19172
2.24089
2.28975
2.33823
2.3862
2.43356
2.48019
2.52595
2.5707
2.61429
2.65655
2.69733
2.73644
2.7737
2.80894
2.84196
2.87258
2.90063
2.92593
2.94834
2.9677
2.98392
2.99688
3.00652
3.01281
3.01576
3.01539
3.01177
3.00501
2.99525
2.98267
2.96747
2.94988
2.93016
2.90858
2.88544
2.861
2.83559
2.8095
2.78302
2.75641
2.72993
2.70385
2.67839
2.65374
2.63007
2.60753
2.58622
2.56625
2.54767
2.5305
2.51475
2.50035
2.48723
2.47523
2.46412
2.45366
2.44341
2.43362
2.42309
0.00509494
0.00885903
0.011764
0.014161
0.0162712
0.0182027
0.0200185
0.0217606
0.0234596
0.0251385
0.0268153
0.0285041
0.0302162
0.0319606
0.0337448
0.0355755
0.0374583
0.039399
0.0414029
0.0434752
0.0456216
0.0478473
0.050158
0.0525595
0.0550576
0.0576583
0.060368
0.0631932
0.0661406
0.0692174
0.0724309
0.0757888
0.0792992
0.0829705
0.0868113
0.0908306
0.0950379
0.0994427
0.104055
0.108886
0.113945
0.119244
0.124794
0.130606
0.136694
0.14307
0.149746
0.156736
0.164053
0.171712
0.179728
0.188115
0.196889
0.206066
0.215661
0.225691
0.236173
0.247123
0.258558
0.270495
0.28295
0.295939
0.30948
0.323587
0.338278
0.353567
0.369473
0.386011
0.4032
0.421058
0.439604
0.458858
0.478839
0.499566
0.521057
0.54333
0.566401
0.590288
0.615005
0.640566
0.666985
0.694273
0.72244
0.751495
0.781444
0.812293
0.844045
0.8767
0.910259
0.944718
0.980074
1.01632
1.05345
1.09146
1.13033
1.17005
1.21063
1.25204
1.29427
1.33733
1.38119
1.42585
1.47131
1.51755
1.56457
1.61235
1.66087
1.71013
1.76009
1.81073
1.862
1.91387
1.96628
2.01917
2.07248
2.12616
2.17993
2.23375
2.28756
2.34129
2.39488
2.44825
2.50132
2.55399
2.60616
2.65773
2.70858
2.75858
2.80759
2.85546
2.90203
2.94712
2.99057
3.03219
3.07179
3.10917
3.14412
3.17647
3.20602
3.23259
3.25604
3.27622
3.293
3.3063
3.31606
3.32226
3.32491
3.32406
3.3198
3.31227
3.30163
3.28807
3.27182
3.25315
3.23233
3.20965
3.18539
3.15992
3.13353
3.10652
3.07918
3.05179
3.02461
2.99788
2.97181
2.9466
2.92239
2.89932
2.8775
2.85697
2.83778
2.81991
2.80331
2.78785
2.77337
2.7596
2.74628
2.73302
2.72008
2.70666
0.0058073
0.0101806
0.0134392
0.0160921
0.0184134
0.0205285
0.022508
0.0243983
0.0262326
0.0280365
0.0298299
0.0316291
0.0334471
0.035295
0.037182
0.0391162
0.041105
0.043155
0.0452725
0.0474637
0.0497344
0.0520903
0.0545373
0.0570811
0.0597278
0.0624834
0.0653543
0.0683472
0.071469
0.074727
0.0781289
0.0816828
0.0853972
0.089281
0.0933434
0.0975941
0.102043
0.106701
0.111579
0.116687
0.122037
0.127642
0.133513
0.139664
0.146107
0.152856
0.159925
0.167327
0.175079
0.183195
0.191691
0.200583
0.209887
0.21962
0.2298
0.240445
0.251572
0.263198
0.275344
0.288027
0.301266
0.31508
0.329487
0.344507
0.36016
0.376464
0.393441
0.411112
0.429496
0.448617
0.468496
0.489156
0.510618
0.532904
0.556036
0.580035
0.60492
0.630711
0.657425
0.68508
0.71369
0.74327
0.773831
0.805383
0.837933
0.871487
0.906048
0.941615
0.978186
1.01576
1.05432
1.09386
1.13438
1.17585
1.21826
1.2616
1.30585
1.35099
1.39701
1.44389
1.49162
1.54019
1.58959
1.6398
1.69081
1.74262
1.79521
1.84855
1.90263
1.95741
2.01285
2.0689
2.1255
2.18259
2.2401
2.2979
2.35576
2.41363
2.47145
2.52917
2.58672
2.64403
2.70102
2.75761
2.81371
2.86923
2.92405
2.97805
3.03111
3.08307
3.13378
3.18309
3.23081
3.27677
3.32077
3.3626
3.40206
3.43894
3.47304
3.50418
3.53216
3.55681
3.578
3.5956
3.60953
3.61974
3.6262
3.62894
3.62804
3.62359
3.61573
3.60466
3.59057
3.57375
3.55446
3.53301
3.50968
3.4848
3.4587
3.43169
3.40406
3.3761
3.3481
3.3203
3.29293
3.26619
3.24026
3.21528
3.19135
3.16856
3.14692
3.12643
3.10702
3.08857
3.07088
3.05367
3.03667
3.01952
3.00247
2.98506
0.00642308
0.0113674
0.0149292
0.0177995
0.0203028
0.0225787
0.0247033
0.0267256
0.028681
0.0305963
0.0324931
0.0343892
0.0362993
0.0382359
0.0402099
0.0422309
0.0443075
0.0464475
0.048658
0.0509457
0.0533169
0.0557777
0.0583338
0.0609913
0.063756
0.066634
0.0696318
0.0727559
0.0760133
0.0794117
0.0829588
0.086663
0.0905332
0.0945785
0.0988089
0.103234
0.107866
0.112714
0.11779
0.123107
0.128676
0.13451
0.140622
0.147027
0.153737
0.160767
0.168132
0.175848
0.18393
0.192394
0.201257
0.210537
0.22025
0.230416
0.241053
0.25218
0.263816
0.275982
0.288698
0.301984
0.315862
0.330353
0.345479
0.361262
0.377726
0.394894
0.412789
0.431437
0.450861
0.471088
0.492143
0.514051
0.536839
0.560532
0.585154
0.610731
0.637285
0.66484
0.693416
0.723035
0.753713
0.785467
0.818312
0.852258
0.887315
0.923488
0.960781
0.999192
1.03872
1.07935
1.12108
1.16389
1.20777
1.25269
1.29864
1.34559
1.39352
1.4424
1.49221
1.54293
1.59453
1.64701
1.70034
1.75451
1.80952
1.86533
1.92194
1.97934
2.03749
2.09635
2.1559
2.21606
2.27677
2.33796
2.39957
2.4613
2.52305
2.58476
2.64636
2.7078
2.76902
2.82996
2.89056
2.95074
3.01043
3.06954
3.12799
3.18565
3.24242
3.29816
3.35273
3.40598
3.45775
3.50786
3.55613
3.60234
3.64628
3.68773
3.72649
3.76236
3.79512
3.82457
3.85053
3.87287
3.89149
3.90623
3.91708
3.92404
3.92714
3.92642
3.92204
3.91415
3.90296
3.8887
3.87164
3.85206
3.83025
3.80654
3.78124
3.75467
3.72713
3.69892
3.67033
3.64162
3.61303
3.58478
3.55706
3.53001
3.50375
3.47837
3.45389
3.43032
3.40756
3.38551
3.36395
3.3426
3.3212
3.2994
3.27744
3.25513
0.00695563
0.0124111
0.0162246
0.0192715
0.0219243
0.0243344
0.0265817
0.028717
0.0307762
0.0327874
0.034773
0.0367519
0.03874
0.0407511
0.0427975
0.0448899
0.0470379
0.0492503
0.0515347
0.0538984
0.0563479
0.0588893
0.0615285
0.0642715
0.067124
0.0700922
0.0731823
0.076401
0.0797553
0.0832528
0.0869015
0.0907099
0.0946872
0.0988428
0.103187
0.10773
0.112484
0.117459
0.122668
0.128124
0.133839
0.139826
0.1461
0.152675
0.159565
0.166786
0.174353
0.182283
0.190592
0.199299
0.208419
0.217973
0.227979
0.238456
0.249426
0.260908
0.272924
0.285496
0.298647
0.3124
0.326779
0.341808
0.357512
0.373917
0.39105
0.408937
0.427607
0.447088
0.467409
0.488599
0.510688
0.533706
0.557683
0.582649
0.608632
0.635661
0.663764
0.692969
0.723299
0.754779
0.78743
0.821272
0.856322
0.892592
0.930095
0.968836
1.00882
1.05004
1.09251
1.13619
1.18109
1.22718
1.27445
1.32285
1.37237
1.42298
1.47463
1.5273
1.58096
1.63557
1.6911
1.74753
1.80484
1.86301
1.92202
1.98186
2.04251
2.10394
2.16615
2.22907
2.29268
2.3569
2.42166
2.48686
2.5524
2.61792
2.68336
2.74866
2.81376
2.87861
2.94317
3.00737
3.07117
3.13452
3.19735
3.25961
3.32121
3.38207
3.44208
3.50112
3.55908
3.61582
3.67121
3.72509
3.77728
3.82757
3.87573
3.92156
3.96484
4.00538
4.04294
4.07723
4.10809
4.13536
4.15893
4.17853
4.19414
4.20572
4.21327
4.21683
4.21649
4.21238
4.20467
4.19356
4.17931
4.16216
4.1424
4.12034
4.09629
4.07055
4.04344
4.01526
3.98631
3.95685
3.92714
3.89741
3.86785
3.83862
3.80986
3.78164
3.75401
3.72696
3.70042
3.67427
3.6483
3.62226
3.59586
3.56882
3.54132
3.51342
0.00740558
0.0133091
0.0173249
0.0205081
0.0232763
0.0257913
0.0281357
0.0303609
0.0325034
0.0345916
0.0366485
0.0386936
0.0407439
0.0428143
0.0449178
0.0470662
0.0492697
0.0515376
0.053878
0.056298
0.0588044
0.0614031
0.0641001
0.0669012
0.0698119
0.0728384
0.0759868
0.0792637
0.0826761
0.0862317
0.0899384
0.0938051
0.0978409
0.102056
0.10646
0.111064
0.115881
0.120921
0.126198
0.131724
0.137513
0.143579
0.149936
0.1566
0.163585
0.170908
0.178585
0.186634
0.195072
0.203918
0.21319
0.222909
0.233095
0.243769
0.254954
0.266671
0.278946
0.2918
0.305261
0.319354
0.334106
0.349544
0.365698
0.382596
0.400269
0.418749
0.438067
0.458256
0.47935
0.501383
0.52439
0.548404
0.573461
0.599595
0.626841
0.655231
0.684798
0.715573
0.747585
0.780864
0.815433
0.851316
0.888533
0.927099
0.967029
1.00833
1.05101
1.09506
1.14047
1.18725
1.23536
1.28478
1.3355
1.38746
1.44063
1.49497
1.55044
1.607
1.66459
1.72318
1.78272
1.84319
1.90455
1.96677
2.02984
2.09373
2.15843
2.22393
2.29017
2.35715
2.42478
2.49301
2.56174
2.63086
2.70013
2.76922
2.83809
2.90668
2.97494
3.04283
3.1103
3.17731
3.24383
3.30983
3.37525
3.44007
3.50423
3.56767
3.63029
3.69199
3.75268
3.81228
3.87065
3.92768
3.98323
4.03708
4.08897
4.13872
4.18613
4.23101
4.27313
4.31209
4.34773
4.37988
4.40834
4.43292
4.4535
4.47
4.48236
4.49058
4.49472
4.49484
4.49108
4.48361
4.47263
4.45838
4.44113
4.42114
4.39872
4.37418
4.34783
4.31997
4.29089
4.26087
4.23018
4.19904
4.16766
4.13622
4.10485
4.07365
4.04265
4.01186
3.98122
3.95062
3.91985
3.88869
3.85687
3.82415
3.79066
3.75665
0.00777569
0.0140644
0.0182366
0.0215174
0.0243667
0.0269555
0.0293684
0.0316574
0.0338589
0.0360015
0.0381087
0.0402006
0.0422947
0.0444069
0.0465508
0.0487388
0.0509814
0.0532878
0.055666
0.058123
0.0606654
0.0632988
0.0660289
0.0688612
0.0718012
0.0748549
0.0780281
0.0813275
0.08476
0.0883332
0.0920553
0.0959349
0.0999816
0.104205
0.108617
0.113227
0.118049
0.123093
0.128374
0.133904
0.139698
0.14577
0.152135
0.158809
0.165808
0.173149
0.180849
0.188926
0.1974
0.206289
0.215614
0.225397
0.23566
0.246426
0.257718
0.269562
0.281984
0.295011
0.308671
0.322992
0.338007
0.353744
0.370239
0.387523
0.405632
0.424602
0.44447
0.465273
0.48705
0.50984
0.533684
0.558621
0.584692
0.611937
0.640394
0.670102
0.701099
0.733419
0.767098
0.802167
0.838656
0.876592
0.915996
0.956888
0.999283
1.04319
1.08862
1.13556
1.18401
1.23395
1.28536
1.33822
1.39249
1.44812
1.50506
1.56326
1.62266
1.68321
1.74486
1.80753
1.87119
1.93579
2.00127
2.06761
2.13479
2.20277
2.27153
2.34107
2.41134
2.4823
2.55389
2.62603
2.69863
2.77154
2.84423
2.91658
2.98854
3.06003
3.13103
3.20148
3.27135
3.34063
3.40928
3.47729
3.54464
3.61132
3.6773
3.74258
3.80703
3.87059
3.9332
3.99482
4.05535
4.11471
4.17282
4.2295
4.28439
4.33738
4.38829
4.43689
4.48294
4.52614
4.56626
4.60307
4.63635
4.66588
4.69148
4.71302
4.73039
4.74353
4.75243
4.75712
4.75768
4.75422
4.74692
4.73597
4.7216
4.70408
4.68369
4.6607
4.63544
4.60819
4.57925
4.5489
4.51741
4.48501
4.45191
4.4183
4.38432
4.35007
4.31561
4.28094
4.24601
4.21073
4.17492
4.13837
4.10086
4.06219
4.02241
3.98195
0.00807107
0.0146841
0.0189703
0.0223126
0.0252094
0.0278402
0.0302914
0.0326151
0.0348482
0.0370193
0.0391523
0.041268
0.0433847
0.0455188
0.0476846
0.0498942
0.0521581
0.0544851
0.0568826
0.0593571
0.0619145
0.0645599
0.0672988
0.0701361
0.0730772
0.0761277
0.0792933
0.0825804
0.0859961
0.0895477
0.0932435
0.0970924
0.101104
0.105288
0.109656
0.114219
0.11899
0.123981
0.129205
0.134677
0.14041
0.146421
0.152724
0.159336
0.166274
0.173555
0.181197
0.189221
0.197645
0.206492
0.215782
0.22554
0.235789
0.246554
0.257863
0.269742
0.282221
0.29533
0.309101
0.323565
0.338759
0.354717
0.371476
0.389075
0.407554
0.426954
0.447318
0.468688
0.491109
0.514627
0.539288
0.565137
0.592222
0.620588
0.650279
0.68134
0.713812
0.747734
0.783146
0.820083
0.858578
0.898661
0.940357
0.983687
1.02867
1.07531
1.12361
1.17357
1.22519
1.27845
1.33331
1.38976
1.44773
1.50717
1.56802
1.63022
1.69369
1.75836
1.82417
1.89104
1.95891
2.0277
2.09736
2.16786
2.23914
2.31119
2.38398
2.45749
2.53168
2.60651
2.6819
2.75777
2.83402
2.91028
2.98603
3.06121
3.13577
3.20965
3.28283
3.35526
3.42692
3.4978
3.56789
3.63718
3.70567
3.77338
3.84032
3.90657
3.97196
4.03643
4.1
4.16266
4.22436
4.28506
4.34466
4.40303
4.45996
4.5153
4.56888
4.62048
4.66986
4.71673
4.76086
4.80196
4.83978
4.87407
4.9046
4.93116
4.9536
4.97178
4.98562
4.99511
5.00026
5.00113
4.99784
4.99054
4.97944
4.96476
4.94675
4.92569
4.90186
4.87556
4.84706
4.81666
4.78461
4.75115
4.71651
4.68087
4.64437
4.60712
4.5692
4.53063
4.49136
4.45131
4.41035
4.3683
4.32496
4.28019
4.23399
4.18689
0.00829906
0.0151782
0.0195392
0.0229095
0.0258217
0.0284628
0.030921
0.0332489
0.0354836
0.0376544
0.0397858
0.0418995
0.0440149
0.0461489
0.0483159
0.0505277
0.0527941
0.0551226
0.0575199
0.0599915
0.0625423
0.0651771
0.0679004
0.0707168
0.0736312
0.0766488
0.0797752
0.0830166
0.0863797
0.0898722
0.0935022
0.0972787
0.101211
0.105311
0.109587
0.114054
0.118722
0.123606
0.128718
0.134074
0.139688
0.145577
0.151755
0.15824
0.165051
0.172205
0.179722
0.187622
0.195927
0.20466
0.213844
0.223506
0.233671
0.244368
0.255627
0.267478
0.279953
0.293088
0.306918
0.321481
0.336816
0.352964
0.369966
0.387867
0.406713
0.426551
0.44743
0.469399
0.492511
0.516816
0.542367
0.569218
0.597422
0.627031
0.658097
0.690668
0.724785
0.760492
0.79783
0.836839
0.877553
0.920005
0.964218
1.01021
1.05801
1.10761
1.15902
1.21223
1.26723
1.324
1.38252
1.44274
1.50462
1.56805
1.63296
1.69928
1.76694
1.83583
1.90589
1.97701
2.0491
2.12209
2.19591
2.2705
2.34581
2.42181
2.49846
2.57574
2.65361
2.73201
2.81088
2.89013
2.96953
3.04848
3.12663
3.20398
3.28046
3.35604
3.43068
3.50434
3.57703
3.64871
3.71941
3.78912
3.85786
3.92568
3.9926
4.05866
4.12384
4.18812
4.25154
4.31413
4.37587
4.43677
4.49678
4.55581
4.61374
4.67043
4.72575
4.77949
4.83141
4.88127
4.92878
4.97367
5.01562
5.05434
5.08956
5.121
5.14844
5.17168
5.19058
5.20502
5.21497
5.22043
5.22146
5.21816
5.21067
5.19921
5.18397
5.16521
5.1432
5.1182
5.0905
5.06037
5.02807
4.99383
4.95789
4.92042
4.88159
4.84151
4.80025
4.75786
4.71431
4.66954
4.62345
4.57591
4.52675
4.47587
4.42323
4.36946
0.00846886
0.015558
0.0199569
0.0233242
0.0262213
0.028842
0.0312761
0.0335768
0.0357821
0.0379218
0.040022
0.0421058
0.0441942
0.0463048
0.0484514
0.050645
0.0528936
0.0552035
0.0575799
0.060027
0.062549
0.0651496
0.0678326
0.0706021
0.0734623
0.0764181
0.0794747
0.082638
0.0859149
0.0893127
0.0928398
0.0965052
0.100319
0.104292
0.108434
0.11276
0.11728
0.12201
0.126963
0.132154
0.137599
0.143314
0.149316
0.155624
0.162255
0.169231
0.17657
0.184297
0.192434
0.201007
0.210042
0.219566
0.229612
0.240209
0.251392
0.263195
0.275658
0.288819
0.30272
0.317405
0.332919
0.349309
0.366623
0.384912
0.40423
0.42463
0.44617
0.468906
0.492896
0.5182
0.544878
0.572988
0.602591
0.633748
0.666519
0.700959
0.737094
0.774967
0.814623
0.856102
0.899439
0.944662
0.991793
1.04085
1.09184
1.14476
1.19962
1.25639
1.31507
1.37563
1.43803
1.50225
1.56827
1.63583
1.70491
1.77543
1.84729
1.92041
1.99467
2.06996
2.14617
2.22321
2.30099
2.37944
2.45849
2.5381
2.61824
2.69885
2.7799
2.86132
2.94306
3.02491
3.10624
3.18676
3.26632
3.34484
3.42228
3.49858
3.57371
3.64764
3.72036
3.79186
3.86216
3.93128
3.99924
4.06611
4.13193
4.19676
4.26064
4.32362
4.38576
4.44712
4.50775
4.56771
4.62699
4.68558
4.74341
4.80041
4.85645
4.91138
4.96498
5.01702
5.06721
5.11524
5.1608
5.20354
5.24312
5.27922
5.31154
5.33981
5.36379
5.38332
5.39826
5.40856
5.4142
5.41522
5.41173
5.40386
5.39179
5.37575
5.35596
5.33268
5.30617
5.2767
5.24451
5.20985
5.17293
5.13394
5.09304
5.05037
5.006
4.95999
4.91234
4.86302
4.81195
4.75904
4.70417
4.6473
4.58834
4.528
0.00859142
0.0158345
0.0202341
0.0235686
0.0264222
0.0289938
0.0313746
0.0336184
0.0357636
0.0378412
0.0398794
0.0419048
0.0439405
0.0460044
0.0481092
0.0502635
0.0524733
0.054743
0.0570762
0.059476
0.0619455
0.0644874
0.0671048
0.069801
0.0725797
0.0754452
0.0784025
0.0814573
0.0846162
0.0878867
0.0912773
0.0947974
0.0984572
0.102267
0.10624
0.110388
0.114724
0.119262
0.124018
0.129008
0.134247
0.139754
0.145547
0.151645
0.158068
0.164839
0.17198
0.179515
0.187472
0.195877
0.204763
0.214161
0.224107
0.234637
0.24579
0.257609
0.270138
0.283424
0.297519
0.312474
0.328347
0.345189
0.363054
0.382002
0.402096
0.4234
0.445979
0.469897
0.49522
0.522013
0.550341
0.580268
0.61186
0.645181
0.680304
0.717324
0.756179
0.796914
0.839582
0.88422
0.930855
0.979505
1.03018
1.08289
1.13762
1.19437
1.25313
1.31386
1.37655
1.44115
1.50762
1.57589
1.64591
1.71752
1.79066
1.86521
1.94107
2.01813
2.09627
2.17535
2.25526