/*--------------------------------*- C++ -*----------------------------------*\
| =========                 |                                                 |
| \\      /  F ield         | OpenFOAM: The Open Source CFD Toolbox           |
|  \\    /   O peration     | Version:  1.4.2                                 |
|   \\  /    A nd           | Web:      http://www.openfoam.org               |
|    \\/     M anipulation  |                                                 |
\*---------------------------------------------------------------------------*/
FoamFile
{
    version     2.0;
    format      ascii;
    class       volScalarField;
    object      p;
    location    "750";
}
// * * * * * * * * * * * * * * * * * * * * * * * * * * * * * * * * * * * * * //

dimensions      [0 2 -2 0 0 0 0];

internalField   nonuniform List<scalar> 
12225
(
-4.83938
-5.67697
-5.92628
-6.02387
-6.12959
-6.23327
-6.32482
-6.40792
-6.48653
-6.56239
-6.63657
-6.71018
-6.78453
-6.86129
-6.94288
-7.03338
-7.13958
-7.28821
-5.00571
-5.68412
-5.92427
-6.02546
-6.1302
-6.23218
-6.32254
-6.40471
-6.48244
-6.55744
-6.63078
-6.70356
-6.77707
-6.85291
-6.93339
-7.02215
-7.12537
-7.25892
-5.18475
-5.68008
-5.91349
-6.02315
-6.12806
-6.22861
-6.31828
-6.40012
-6.4775
-6.5521
-6.62497
-6.69717
-6.76988
-6.84452
-6.9229
-7.00748
-7.10045
-7.20345
-5.3419
-5.69764
-5.91639
-6.03043
-6.13378
-6.23183
-6.32016
-6.40124
-6.478
-6.55199
-6.62421
-6.69563
-6.76726
-6.84022
-6.91571
-6.99488
-7.07742
-7.16034
-5.47172
-5.72903
-5.927
-6.04159
-6.14256
-6.23774
-6.32425
-6.40413
-6.47984
-6.55281
-6.62396
-6.69413
-6.76413
-6.83473
-6.90654
-6.97968
-7.05253
-7.12082
-5.58477
-5.76875
-5.94254
-6.0546
-6.15242
-6.24452
-6.32905
-6.40757
-6.4821
-6.55389
-6.62377
-6.69242
-6.76044
-6.82827
-6.89604
-6.9632
-7.02769
-7.08552
-5.68499
-5.81427
-5.9628
-6.06948
-6.16323
-6.25171
-6.33381
-6.41062
-6.48372
-6.55412
-6.62248
-6.68935
-6.7551
-6.81988
-6.88347
-6.945
-7.00247
-7.05274
-5.76109
-5.85606
-5.98375
-6.08387
-6.17338
-6.25832
-6.33789
-6.41285
-6.48437
-6.55327
-6.62007
-6.68514
-6.74872
-6.81076
-6.87086
-6.92809
-6.98072
-7.02629
-5.82206
-5.89407
-6.00432
-6.09803
-6.18334
-6.26483
-6.34189
-6.41492
-6.48479
-6.5521
-6.61728
-6.68056
-6.74204
-6.80156
-6.85865
-6.91241
-6.96143
-7.0037
-5.88207
-5.93558
-6.02846
-6.11471
-6.19506
-6.27253
-6.3466
-6.41728
-6.48511
-6.55049
-6.61369
-6.67483
-6.7339
-6.79065
-6.8446
-6.89495
-6.94061
-6.98003
-5.9403
-5.97957
-6.05608
-6.13388
-6.20856
-6.28146
-6.352
-6.41988
-6.48525
-6.54832
-6.60919
-6.66788
-6.72426
-6.77806
-6.82882
-6.87589
-6.91849
-6.95547
-5.9959
-6.02472
-6.08659
-6.15534
-6.22375
-6.29159
-6.35809
-6.42267
-6.48514
-6.5455
-6.6037
-6.65963
-6.71311
-6.76384
-6.81145
-6.85543
-6.89526
-6.93014
-6.04803
-6.06945
-6.11892
-6.17853
-6.24031
-6.30271
-6.36473
-6.42555
-6.48471
-6.54198
-6.59718
-6.6501
-6.70051
-6.74815
-6.79269
-6.83381
-6.87115
-6.90421
-6.0957
-6.11197
-6.15146
-6.20245
-6.25753
-6.31432
-6.37157
-6.42828
-6.48379
-6.53766
-6.5896
-6.63934
-6.68662
-6.73119
-6.77283
-6.8113
-6.84641
-6.87785
-6.13749
-6.15025
-6.18209
-6.22549
-6.2742
-6.32551
-6.37794
-6.4304
-6.48205
-6.53236
-6.58092
-6.62742
-6.67159
-6.71322
-6.75214
-6.78821
-6.82133
-6.8513
-6.17137
-6.18179
-6.20811
-6.24539
-6.28855
-6.33487
-6.38278
-6.43112
-6.479
-6.52579
-6.57102
-6.61438
-6.6556
-6.69449
-6.73094
-6.76485
-6.79618
-6.82483
-6.19434
-6.20333
-6.2261
-6.25908
-6.29802
-6.34035
-6.38448
-6.42926
-6.47378
-6.51739
-6.55963
-6.60015
-6.63873
-6.67521
-6.70949
-6.74154
-6.77132
-6.7988
-6.20135
-6.20983
-6.23128
-6.26243
-6.2993
-6.33943
-6.38129
-6.42376
-6.46598
-6.50732
-6.54734
-6.58575
-6.62234
-6.65698
-6.68961
-6.72022
-6.74877
-6.77527
-6.19182
-6.20073
-6.22317
-6.25514
-6.29233
-6.33231
-6.37366
-6.41536
-6.45659
-6.49681
-6.53564
-6.57282
-6.60821
-6.64171
-6.67329
-6.70295
-6.73069
-6.75651
-6.16973
-6.18008
-6.20566
-6.24068
-6.28006
-6.32145
-6.36365
-6.40572
-6.44696
-6.48692
-6.5253
-6.56194
-6.59672
-6.6296
-6.66057
-6.68966
-6.71689
-6.74227
-6.13759
-6.15075
-6.18189
-6.22195
-6.26489
-6.30878
-6.35271
-6.39588
-6.43774
-6.47796
-6.51638
-6.55288
-6.58741
-6.61999
-6.65063
-6.67938
-6.70627
-6.73133
-6.0966
-6.1147
-6.15438
-6.20123
-6.24864
-6.29569
-6.34186
-6.38654
-6.42934
-6.47011
-6.5088
-6.5454
-6.57991
-6.61237
-6.64285
-6.67139
-6.69806
-6.72286
-6.04699
-6.07351
-6.12537
-6.18032
-6.23261
-6.28312
-6.33178
-6.3781
-6.42195
-6.46338
-6.50246
-6.53927
-6.57388
-6.60635
-6.63676
-6.6652
-6.6917
-6.71629
-5.98814
-6.0288
-6.097
-6.16059
-6.21766
-6.27168
-6.32281
-6.37072
-6.41559
-6.45768
-6.49718
-6.53425
-6.569
-6.60155
-6.63197
-6.66035
-6.68674
-6.71111
-5.9188
-5.98243
-6.07121
-6.14298
-6.20428
-6.26165
-6.31508
-6.3644
-6.41014
-6.4528
-6.49269
-6.53001
-6.56492
-6.59758
-6.62808
-6.65649
-6.68283
-6.70701
-5.83716
-5.9367
-6.04946
-6.12782
-6.19252
-6.25293
-6.30837
-6.35884
-6.40529
-6.44842
-6.48863
-6.52617
-6.56127
-6.59408
-6.62474
-6.6533
-6.67972
-6.70383
-5.73973
-5.89523
-6.03291
-6.11498
-6.18225
-6.24543
-6.30263
-6.35406
-6.40113
-6.44472
-6.48528
-6.52312
-6.55848
-6.59157
-6.62253
-6.65144
-6.67823
-6.70262
-5.61484
-5.86382
-6.02411
-6.10529
-6.17411
-6.23979
-6.29849
-6.3507
-6.39827
-6.44224
-6.4831
-6.52117
-6.55674
-6.59004
-6.62127
-6.65058
-6.67794
-6.70312
-5.45386
-5.85301
-6.03122
-6.10634
-6.17478
-6.24186
-6.30123
-6.35362
-6.40125
-6.44528
-6.48617
-6.52426
-6.55986
-6.59323
-6.62462
-6.6543
-6.68246
-6.70961
-5.29095
-5.83646
-6.03121
-6.10365
-6.17266
-6.24109
-6.30123
-6.35401
-6.40194
-6.44623
-6.48738
-6.52572
-6.56157
-6.5952
-6.62689
-6.65702
-6.68611
-6.7182
-7.35103
-7.35094
-7.35096
-7.35109
-7.35133
-7.35166
-7.35204
-7.35247
-7.35294
-7.35345
-7.354
-7.35458
-7.35519
-7.35585
-7.35657
-7.35736
-7.35822
-7.35916
-7.36019
-7.36132
-7.36255
-7.3639
-7.36538
-7.36699
-7.36874
-7.37066
-7.37274
-7.37501
-7.37746
-7.38013
-7.38301
-7.38613
-7.3895
-7.39312
-7.39702
-7.40122
-7.40571
-7.41053
-7.41568
-7.42118
-7.42703
-7.43327
-7.4399
-7.44693
-7.45439
-7.46228
-7.47062
-7.47942
-7.48869
-7.49845
-7.50872
-7.51949
-7.53077
-7.54259
-7.55495
-7.56784
-7.58129
-7.59529
-7.60985
-7.62497
-7.64065
-7.65688
-7.67367
-7.69099
-7.70884
-7.72719
-7.74603
-7.76549
-7.78576
-7.80686
-7.82836
-7.84997
-7.8718
-7.89385
-7.91608
-7.93846
-7.96092
-7.98341
-8.00584
-8.02815
-8.05024
-8.07203
-8.09341
-8.11428
-8.13453
-8.15404
-8.17268
-8.19032
-8.20681
-8.22201
-8.23575
-8.24785
-8.25814
-8.26641
-8.27246
-8.27606
-8.27698
-8.27495
-8.26968
-8.26088
-8.2482
-8.23131
-8.20981
-8.18331
-8.15135
-8.11347
-8.06919
-8.018
-7.95938
-7.89279
-7.81768
-7.73352
-7.63976
-7.53589
-7.42142
-7.29585
-7.1587
-7.00948
-6.84777
-6.67331
-6.48589
-6.28537
-6.07166
-5.84476
-5.60475
-5.35178
-5.08613
-4.80818
-4.51842
-4.21745
-3.90599
-3.58487
-3.25507
-2.91764
-2.57375
-2.22468
-1.87178
-1.51647
-1.16023
-0.804553
-0.450977
-0.101026
0.243811
0.582106
0.912488
1.23366
1.54444
1.84377
2.13075
2.40458
2.66462
2.91039
3.14156
3.35797
3.55956
3.74646
3.91892
4.0773
4.2221
4.35391
4.4734
4.58139
4.6787
4.76628
4.84509
4.91618
4.98064
5.03959
5.09422
5.14573
5.1954
5.2445
5.29445
5.34667
5.40278
5.46442
5.53371
5.61141
5.70436
5.80381
-7.351
-7.35094
-7.35094
-7.35106
-7.35127
-7.35152
-7.35181
-7.35211
-7.35245
-7.3528
-7.35319
-7.35362
-7.3541
-7.35462
-7.35519
-7.35584
-7.35655
-7.35735
-7.35823
-7.35921
-7.36029
-7.36149
-7.36281
-7.36425
-7.36584
-7.36759
-7.36949
-7.37157
-7.37384
-7.3763
-7.37898
-7.38188
-7.38502
-7.38841
-7.39207
-7.396
-7.40023
-7.40477
-7.40963
-7.41482
-7.42036
-7.42627
-7.43256
-7.43925
-7.44634
-7.45386
-7.46181
-7.47021
-7.47907
-7.48841
-7.49824
-7.50857
-7.51942
-7.53078
-7.54268
-7.55513
-7.56813
-7.58169
-7.59583
-7.61055
-7.62586
-7.64177
-7.65827
-7.67536
-7.69304
-7.71128
-7.73005
-7.74929
-7.76886
-7.78861
-7.80882
-7.82963
-7.8508
-7.87224
-7.89389
-7.9157
-7.9376
-7.95954
-7.98145
-8.00324
-8.02483
-8.04613
-8.06705
-8.08748
-8.10731
-8.12643
-8.14472
-8.16204
-8.17825
-8.1932
-8.20674
-8.2187
-8.22889
-8.23713
-8.24322
-8.24693
-8.24804
-8.24628
-8.2414
-8.23307
-8.221
-8.20485
-8.18423
-8.15876
-8.12799
-8.09148
-8.04876
-7.99932
-7.94264
-7.8782
-7.80545
-7.72385
-7.63287
-7.53198
-7.42071
-7.29858
-7.16503
-7.0195
-6.86162
-6.69111
-6.50777
-6.31145
-6.10204
-5.87953
-5.64394
-5.39545
-5.13428
-4.8608
-4.57545
-4.27879
-3.97152
-3.65445
-3.32848
-2.99464
-2.65406
-2.30799
-1.95774
-1.6047
-1.25032
-0.896061
-0.543444
-0.193977
0.150864
0.489651
0.821011
1.14364
1.45635
1.75806
2.04782
2.32481
2.58838
2.83798
3.07323
3.29395
3.50003
3.69154
3.86869
4.03179
4.18129
4.31772
4.44175
4.55412
4.65562
4.74715
4.82967
4.90416
4.9717
5.03339
5.09042
5.14395
5.19527
5.24564
5.29646
5.34912
5.4052
5.46611
5.53401
5.60856
5.69744
5.78511
-7.35042
-7.35044
-7.35053
-7.3507
-7.35092
-7.35115
-7.35138
-7.35162
-7.35187
-7.35213
-7.35241
-7.35273
-7.35309
-7.35351
-7.35398
-7.35452
-7.35514
-7.35583
-7.35662
-7.3575
-7.35848
-7.35957
-7.36079
-7.36213
-7.36361
-7.36524
-7.36703
-7.36899
-7.37113
-7.37346
-7.376
-7.37876
-7.38176
-7.38499
-7.38849
-7.39226
-7.39631
-7.40067
-7.40534
-7.41033
-7.41567
-7.42137
-7.42744
-7.43389
-7.44075
-7.44802
-7.45572
-7.46386
-7.47246
-7.48152
-7.49107
-7.50111
-7.51166
-7.52272
-7.53431
-7.54643
-7.5591
-7.57233
-7.58611
-7.60046
-7.61539
-7.63088
-7.64695
-7.66358
-7.68076
-7.69851
-7.7168
-7.73562
-7.75489
-7.77451
-7.79451
-7.8149
-7.83562
-7.8566
-7.8778
-7.89915
-7.92062
-7.94212
-7.96359
-7.98496
-8.00614
-8.02704
-8.04757
-8.06763
-8.08711
-8.10588
-8.12385
-8.14087
-8.1568
-8.17151
-8.18483
-8.19661
-8.20667
-8.21482
-8.22087
-8.2246
-8.2258
-8.22421
-8.21956
-8.21157
-8.19994
-8.18434
-8.1644
-8.13973
-8.10991
-8.07451
-8.03306
-7.98506
-7.93
-7.86736
-7.79659
-7.71717
-7.62856
-7.53024
-7.42177
-7.30264
-7.17221
-7.02992
-6.87545
-6.70853
-6.52893
-6.33649
-6.13111
-5.91273
-5.68138
-5.43721
-5.18042
-4.91135
-4.63041
-4.33813
-4.03518
-3.72232
-3.40043
-3.07049
-2.73361
-2.39097
-2.04386
-1.69362
-1.34167
-0.989443
-0.63842
-0.290078
0.0541257
0.39277
0.724496
1.04802
1.36214
1.66577
1.95794
2.23781
2.50471
2.75805
2.99742
3.22258
3.43338
3.62982
3.81205
3.98034
4.13506
4.27669
4.4058
4.52309
4.62932
4.72529
4.81193
4.89018
4.96107
5.02568
5.08516
5.14067
5.19348
5.24484
5.29612
5.34866
5.40398
5.46322
5.5288
5.59862
5.6837
5.756
-7.34928
-7.34944
-7.34968
-7.34995
-7.35022
-7.35048
-7.35071
-7.35093
-7.35114
-7.35135
-7.35159
-7.35185
-7.35216
-7.35251
-7.35293
-7.35341
-7.35397
-7.35461
-7.35533
-7.35616
-7.35708
-7.35812
-7.35928
-7.36056
-7.36199
-7.36356
-7.36529
-7.36719
-7.36927
-7.37155
-7.37403
-7.37673
-7.37965
-7.38283
-7.38626
-7.38996
-7.39395
-7.39823
-7.40283
-7.40776
-7.41302
-7.41864
-7.42463
-7.43101
-7.43778
-7.44496
-7.45257
-7.46061
-7.46912
-7.47808
-7.48753
-7.49747
-7.50791
-7.51886
-7.53034
-7.54235
-7.5549
-7.568
-7.58166
-7.59587
-7.61064
-7.62597
-7.64185
-7.65828
-7.67525
-7.69273
-7.71073
-7.72922
-7.74818
-7.76758
-7.78738
-7.80756
-7.82807
-7.84885
-7.86986
-7.89104
-7.91233
-7.93367
-7.95498
-7.9762
-7.99724
-8.018
-8.0384
-8.05834
-8.0777
-8.09638
-8.11426
-8.1312
-8.14708
-8.16175
-8.17507
-8.18686
-8.19696
-8.20519
-8.21136
-8.21526
-8.21667
-8.21535
-8.21104
-8.20346
-8.19231
-8.17728
-8.158
-8.1341
-8.10515
-8.07072
-8.03034
-7.98354
-7.92978
-7.86855
-7.79932
-7.72153
-7.63466
-7.53821
-7.43174
-7.31467
-7.18628
-7.0461
-6.89384
-6.72923
-6.55202
-6.36205
-6.15919
-5.94338
-5.71465
-5.47311
-5.21896
-4.95249
-4.67412
-4.38435
-4.08381
-3.77326
-3.45355
-3.12564
-2.7906
-2.4496
-2.10389
-1.75481
-1.40375
-1.05213
-0.701416
-0.353068
-0.00853939
0.33075
0.663443
0.988257
1.30398
1.60951
1.90387
2.1862
2.45577
2.71201
2.95445
3.18281
3.39691
3.5967
3.78229
3.95392
4.11189
4.25664
4.38872
4.50878
4.61754
4.7158
4.80443
4.88436
4.95661
5.02225
5.0824
5.13824
5.19102
5.24199
5.29248
5.34379
5.39744
5.45431
5.51726
5.58253
5.66586
5.72375
-7.34771
-7.34805
-7.34851
-7.34893
-7.3493
-7.34961
-7.34988
-7.35012
-7.35034
-7.35056
-7.35079
-7.35104
-7.35133
-7.35167
-7.35206
-7.35252
-7.35305
-7.35366
-7.35436
-7.35515
-7.35605
-7.35706
-7.35819
-7.35945
-7.36084
-7.36239
-7.3641
-7.36598
-7.36804
-7.37029
-7.37275
-7.37543
-7.37834
-7.38149
-7.38491
-7.38859
-7.39255
-7.39682
-7.40139
-7.40629
-7.41153
-7.41712
-7.42307
-7.42941
-7.43614
-7.44328
-7.45084
-7.45884
-7.46729
-7.4762
-7.48558
-7.49546
-7.50583
-7.51671
-7.52811
-7.54003
-7.55249
-7.5655
-7.57905
-7.59316
-7.60782
-7.62302
-7.63878
-7.65508
-7.67191
-7.68926
-7.70712
-7.72547
-7.74428
-7.76354
-7.78322
-7.80328
-7.82366
-7.84434
-7.86524
-7.88632
-7.90753
-7.92878
-7.95002
-7.97117
-7.99215
-8.01286
-8.03321
-8.05311
-8.07245
-8.09111
-8.10898
-8.12593
-8.14184
-8.15656
-8.16994
-8.18183
-8.19206
-8.20045
-8.20682
-8.21097
-8.21267
-8.21171
-8.20782
-8.20073
-8.19016
-8.17579
-8.15725
-8.13418
-8.10616
-8.07275
-8.0335
-7.9879
-7.93543
-7.87558
-7.80779
-7.73152
-7.64624
-7.55145
-7.44672
-7.33131
-7.20451
-7.06598
-6.91542
-6.75254
-6.57709
-6.38889
-6.1878
-5.97375
-5.74675
-5.5069
-5.25437
-4.98944
-4.7125
-4.42405
-4.1247
-3.81517
-3.49632
-3.16907
-2.83449
-2.49374
-2.14805
-1.79876
-1.44724
-1.09493
-0.743282
-0.393762
-0.0478321
0.293072
0.627586
0.954409
1.2723
1.58014
1.87691
2.16175
2.43387
2.69266
2.93765
3.16851
3.38501
3.58706
3.77478
3.94836
4.10809
4.25437
4.38772
4.50881
4.61836
4.71716
4.80606
4.886
4.958
5.02314
5.08255
5.1374
5.18896
5.23847
5.28725
5.33654
5.38792
5.44205
5.50215
5.56309
5.64534
5.69012
-7.34592
-7.34645
-7.34713
-7.34773
-7.3482
-7.3486
-7.34894
-7.34923
-7.3495
-7.34977
-7.35003
-7.35031
-7.35062
-7.35097
-7.35137
-7.35183
-7.35236
-7.35296
-7.35366
-7.35445
-7.35534
-7.35634
-7.35747
-7.35872
-7.36012
-7.36167
-7.36338
-7.36526
-7.36733
-7.36959
-7.37206
-7.37475
-7.37768
-7.38085
-7.38427
-7.38797
-7.39194
-7.39622
-7.4008
-7.40571
-7.41096
-7.41655
-7.42251
-7.42885
-7.43558
-7.44271
-7.45027
-7.45825
-7.46669
-7.47558
-7.48495
-7.4948
-7.50514
-7.51599
-7.52736
-7.53925
-7.55168
-7.56464
-7.57815
-7.59221
-7.60681
-7.62197
-7.63767
-7.65392
-7.6707
-7.688
-7.70581
-7.72411
-7.74288
-7.76209
-7.78173
-7.80174
-7.82209
-7.84274
-7.86362
-7.88469
-7.90589
-7.92714
-7.94839
-7.96954
-7.99053
-8.01126
-8.03165
-8.05158
-8.07096
-8.08967
-8.10761
-8.12463
-8.14063
-8.15545
-8.16896
-8.181
-8.1914
-8.20001
-8.20663
-8.21107
-8.21312
-8.21255
-8.20912
-8.20258
-8.19262
-8.17893
-8.16117
-8.13895
-8.11187
-8.0795
-8.04135
-7.99693
-7.94572
-7.88717
-7.82074
-7.74586
-7.662
-7.56871
-7.46546
-7.35138
-7.22583
-7.08859
-6.93933
-6.77774
-6.60359
-6.41665
-6.21679
-6.00392
-5.77804
-5.53921
-5.28761
-5.02349
-4.74722
-4.45929
-4.16029
-3.85094
-3.53206
-3.20459
-2.86958
-2.52817
-2.18161
-1.83122
-1.4784
-1.12459
-0.77123
-0.419817
-0.0718354
0.271256
0.608079
0.937311
1.25767
1.56798
1.86723
2.15453
2.42901
2.69003
2.93713
3.16996
3.38821
3.59177
3.78076
3.95541
4.11595
4.26273
4.39632
4.51739
4.62669
4.72499
4.81315
4.8921
4.96292
5.02667
5.08451
5.13762
5.18724
5.23467
5.28119
5.32803
5.37676
5.42789
5.48501
5.54177
5.623
5.65559
-7.34411
-7.34478
-7.34567
-7.34644
-7.34705
-7.34755
-7.34798
-7.34836
-7.34871
-7.34904
-7.34936
-7.34969
-7.35005
-7.35043
-7.35086
-7.35134
-7.35189
-7.35251
-7.35322
-7.35402
-7.35492
-7.35594
-7.35708
-7.35835
-7.35976
-7.36133
-7.36307
-7.36498
-7.36707
-7.36937
-7.37187
-7.37459
-7.37755
-7.38076
-7.38422
-7.38795
-7.39197
-7.39628
-7.4009
-7.40584
-7.41111
-7.41674
-7.42273
-7.4291
-7.43585
-7.44301
-7.45058
-7.45859
-7.46704
-7.47595
-7.48533
-7.49519
-7.50555
-7.51641
-7.52778
-7.53968
-7.55212
-7.56509
-7.5786
-7.59267
-7.60728
-7.62244
-7.63816
-7.65441
-7.6712
-7.68852
-7.70635
-7.72467
-7.74347
-7.76271
-7.78238
-7.80243
-7.82282
-7.84351
-7.86444
-7.88557
-7.90682
-7.92814
-7.94946
-7.97069
-7.99176
-8.01258
-8.03305
-8.05308
-8.07256
-8.09138
-8.10943
-8.12659
-8.14272
-8.1577
-8.17138
-8.18361
-8.19424
-8.20309
-8.21
-8.21477
-8.2172
-8.21706
-8.21413
-8.20815
-8.19882
-8.18585
-8.16888
-8.14753
-8.12141
-8.09006
-8.053
-8.00973
-7.95972
-7.90242
-7.83725
-7.76364
-7.68107
-7.5891
-7.48705
-7.37397
-7.24938
-7.1131
-6.96478
-6.80412
-6.63084
-6.44474
-6.24564
-6.03346
-5.80817
-5.56983
-5.31858
-5.05467
-4.77844
-4.49038
-4.19107
-3.88121
-3.56163
-3.23326
-2.89713
-2.55439
-2.2063
-1.85419
-1.49948
-1.14361
-0.788039
-0.434288
-0.0838774
0.261695
0.601049
0.932834
1.2557
1.56842
1.87002
2.15958
2.43611
2.69894
2.94769
3.18201
3.40144
3.60589
3.79552
3.97058
4.13123
4.27782
4.41093
4.53128
4.6396
4.7367
4.82344
4.90078
4.96981
5.03162
5.08737
5.13824
5.18551
5.23045
5.27437
5.31844
5.36428
5.41226
5.4663
5.51913
5.59931
5.62058
-7.34243
-7.34323
-7.3443
-7.34524
-7.34597
-7.34658
-7.34711
-7.34759
-7.34802
-7.34842
-7.34881
-7.34921
-7.34962
-7.35005
-7.35052
-7.35104
-7.35162
-7.35226
-7.35299
-7.35382
-7.35474
-7.35579
-7.35695
-7.35825
-7.3597
-7.36131
-7.36308
-7.36503
-7.36717
-7.36951
-7.37207
-7.37484
-7.37785
-7.38111
-7.38462
-7.38841
-7.39247
-7.39684
-7.40151
-7.4065
-7.41183
-7.4175
-7.42354
-7.42995
-7.43675
-7.44396
-7.45157
-7.45962
-7.46812
-7.47707
-7.48649
-7.49639
-7.50679
-7.51769
-7.52911
-7.54105
-7.55352
-7.56654
-7.58011
-7.59422
-7.60889
-7.62411
-7.63988
-7.6562
-7.67305
-7.69044
-7.70835
-7.72675
-7.74563
-7.76496
-7.78472
-7.80486
-7.82535
-7.84614
-7.86718
-7.88842
-7.90979
-7.93123
-7.95267
-7.97403
-7.99523
-8.01618
-8.03679
-8.05696
-8.07659
-8.09557
-8.11377
-8.1311
-8.14741
-8.16258
-8.17646
-8.18892
-8.1998
-8.20893
-8.21615
-8.22127
-8.2241
-8.22443
-8.22201
-8.21661
-8.20794
-8.19569
-8.17952
-8.15905
-8.13388
-8.10355
-8.06757
-8.02542
-7.97657
-7.92044
-7.85645
-7.784
-7.70261
-7.61181
-7.51064
-7.39824
-7.27436
-7.13875
-6.99107
-6.83099
-6.65823
-6.47258
-6.27385
-6.06194
-5.83679
-5.59846
-5.34708
-5.08286
-4.80615
-4.51742
-4.21725
-3.90634
-3.58549
-3.25567
-2.91789
-2.5733
-2.22318
-1.86888
-1.51185
-1.15354
-0.795427
-0.439059
-0.0860152
0.262155
0.604111
0.93847
1.26376
1.57869
1.88242
2.17403
2.4523
2.71658
2.96663
3.20206
3.42223
3.62709
3.81686
3.99172
4.15187
4.29768
4.42976
4.54883
4.65564
4.75101
4.83583
4.91111
4.97791
5.03736
5.09064
5.13894
5.18353
5.22568
5.26673
5.30782
5.35058
5.39536
5.4463
5.49541
5.57447
5.58547
-7.34104
-7.34193
-7.34316
-7.34422
-7.34507
-7.34578
-7.3464
-7.34696
-7.34747
-7.34795
-7.34841
-7.34887
-7.34933
-7.34982
-7.35033
-7.35089
-7.3515
-7.35218
-7.35294
-7.3538
-7.35476
-7.35583
-7.35704
-7.35838
-7.35988
-7.36153
-7.36335
-7.36535
-7.36755
-7.36995
-7.37256
-7.3754
-7.37847
-7.38179
-7.38537
-7.38921
-7.39334
-7.39777
-7.40251
-7.40756
-7.41295
-7.41869
-7.42479
-7.43126
-7.43812
-7.44538
-7.45306
-7.46117
-7.46972
-7.47873
-7.48822
-7.49818
-7.50864
-7.51961
-7.5311
-7.54311
-7.55566
-7.56876
-7.5824
-7.5966
-7.61136
-7.62667
-7.64254
-7.65896
-7.67593
-7.69343
-7.71146
-7.72998
-7.74899
-7.76845
-7.78834
-7.80863
-7.82926
-7.8502
-7.8714
-7.89279
-7.91432
-7.93592
-7.95753
-7.97905
-8.00042
-8.02154
-8.04232
-8.06267
-8.08247
-8.10163
-8.12002
-8.13753
-8.15404
-8.16942
-8.18353
-8.19623
-8.20737
-8.2168
-8.22434
-8.22983
-8.23307
-8.23386
-8.23197
-8.22715
-8.21914
-8.20762
-8.19225
-8.17265
-8.14842
-8.11909
-8.08416
-8.04311
-7.99537
-7.94035
-7.87745
-7.80606
-7.72573
-7.63589
-7.53531
-7.42332
-7.2999
-7.1647
-7.01736
-6.85757
-6.68504
-6.49951
-6.3008
-6.08878
-5.8634
-5.62469
-5.37275
-5.1078
-4.83018
-4.54033
-4.23885
-3.92642
-3.60388
-3.27217
-2.93232
-2.58549
-2.23296
-1.87613
-1.5165
-1.15553
-0.794659
-0.435511
-0.0797711
0.270959
0.615507
0.952443
1.28005
1.59701
1.90279
2.19632
2.47611
2.74167
2.99269
3.22866
3.44908
3.65393
3.84333
4.01749
4.17664
4.3212
4.45179
4.56913
4.674
4.76723
4.84975
4.92258
4.98682
5.04359
5.09408
5.13953
5.18118
5.22033
5.2583
5.29626
5.33584
5.37738
5.42521
5.47083
5.54857
5.55044
-7.34003
-7.34098
-7.34231
-7.34348
-7.34441
-7.3452
-7.3459
-7.34653
-7.34711
-7.34765
-7.34817
-7.34868
-7.34919
-7.34971
-7.35026
-7.35085
-7.3515
-7.35221
-7.35301
-7.3539
-7.3549
-7.35603
-7.35728
-7.35867
-7.36022
-7.36192
-7.3638
-7.36587
-7.36813
-7.37059
-7.37327
-7.37617
-7.37931
-7.3827
-7.38635
-7.39027
-7.39447
-7.39897
-7.40377
-7.4089
-7.41436
-7.42016
-7.42633
-7.43287
-7.4398
-7.44714
-7.45489
-7.46307
-7.4717
-7.48078
-7.49034
-7.50039
-7.51093
-7.52199
-7.53356
-7.54567
-7.55832
-7.57151
-7.58527
-7.59958
-7.61445
-7.62989
-7.64589
-7.66245
-7.67955
-7.6972
-7.71538
-7.73406
-7.75323
-7.77286
-7.79292
-7.81338
-7.8342
-7.85532
-7.8767
-7.89828
-7.92
-7.94179
-7.96358
-7.9853
-8.00685
-8.02816
-8.04913
-8.06967
-8.08966
-8.109
-8.12759
-8.1453
-8.16201
-8.1776
-8.19193
-8.20487
-8.21627
-8.22598
-8.23384
-8.23969
-8.24333
-8.24458
-8.2432
-8.23897
-8.2316
-8.22079
-8.20621
-8.18747
-8.16416
-8.13581
-8.1019
-8.0619
-8.01521
-7.96124
-7.89932
-7.8289
-7.74955
-7.66034
-7.56001
-7.44823
-7.32502
-7.18998
-7.04275
-6.88298
-6.71039
-6.52469
-6.3257
-6.11326
-5.88732
-5.64788
-5.39504
-5.129
-4.85007
-4.55873
-4.25556
-3.94125
-3.61665
-3.28273
-2.94051
-2.59111
-2.23589
-1.87631
-1.51396
-1.15021
-0.786441
-0.42441
-0.0659579
0.28731
0.63451
0.974066
1.30399
1.62315
1.93078
2.22571
2.50672
2.77323
3.02478
3.26086
3.48111
3.68548
3.87409
4.04711
4.20485
4.34776
4.47646
4.59169
4.69424
4.78497
4.86486
4.93492
4.99629
5.05011
5.09756
5.13993
5.17844
5.2144
5.24916
5.28388
5.32022
5.35853
5.40326
5.44557
5.52173
5.51564
-7.33943
-7.34041
-7.3418
-7.34304
-7.34403
-7.34488
-7.34563
-7.34631
-7.34694
-7.34752
-7.34808
-7.34862
-7.34916
-7.34971
-7.35028
-7.3509
-7.35157
-7.35232
-7.35315
-7.35409
-7.35513
-7.3563
-7.35761
-7.35905
-7.36066
-7.36243
-7.36437
-7.36651
-7.36883
-7.37137
-7.37412
-7.37709
-7.38031
-7.38377
-7.38749
-7.39148
-7.39576
-7.40033
-7.40521
-7.41041
-7.41594
-7.42182
-7.42806
-7.43468
-7.44169
-7.4491
-7.45693
-7.46519
-7.4739
-7.48307
-7.49272
-7.50286
-7.5135
-7.52465
-7.53633
-7.54855
-7.56131
-7.57463
-7.5885
-7.60295
-7.61796
-7.63354
-7.6497
-7.66641
-7.68368
-7.7015
-7.71985
-7.73871
-7.75807
-7.77789
-7.79815
-7.8188
-7.83982
-7.86114
-7.88273
-7.90451
-7.92643
-7.94843
-7.97042
-7.99233
-8.01407
-8.03557
-8.05673
-8.07744
-8.09761
-8.11713
-8.13589
-8.15378
-8.17067
-8.18645
-8.20098
-8.21413
-8.22577
-8.23574
-8.24389
-8.25007
-8.25409
-8.25576
-8.25488
-8.25119
-8.24444
-8.23432
-8.2205
-8.2026
-8.18018
-8.15277
-8.11984
-8.08083
-8.03514
-7.98211
-7.92108
-7.85159
-7.77307
-7.68406
-7.5836
-7.47185
-7.34863
-7.21353
-7.06618
-6.90622
-6.73332
-6.54721
-6.34767
-6.13454
-5.90773
-5.66727
-5.41324
-5.14576
-4.86519
-4.57202
-4.26684
-3.95035
-3.62341
-3.28707
-2.94222
-2.58999
-2.23187
-1.86939
-1.50421
-1.1376
-0.770777
-0.40571
-0.0443244
0.311844
0.661635
1.00344
1.33552
1.65663
1.96577
2.26179
2.54365
2.81068
3.06235
3.29817
3.51785
3.72134
3.90872
4.08021
4.23615
4.37701
4.50345
4.6162
4.71608
4.804
4.88095
4.94796
5.0062
5.05682
5.10102
5.14011
5.17533
5.20797
5.23942
5.27085
5.30393
5.33904
5.38069
5.41989
5.49415
5.48133
-7.33924
-7.34021
-7.34162
-7.3429
-7.34393
-7.34481
-7.3456
-7.34631
-7.34696
-7.34757
-7.34814
-7.34869
-7.34923
-7.34978
-7.35037
-7.351
-7.35169
-7.35247
-7.35333
-7.3543
-7.3554
-7.35662
-7.35797
-7.35948
-7.36115
-7.36299
-7.365
-7.3672
-7.3696
-7.37221
-7.37504
-7.37809
-7.38138
-7.38492
-7.38871
-7.39278
-7.39713
-7.40178
-7.40673
-7.412
-7.41761
-7.42357
-7.42989
-7.43658
-7.44367
-7.45116
-7.45907
-7.46742
-7.47622
-7.48548
-7.49523
-7.50546
-7.5162
-7.52747
-7.53926
-7.55159
-7.56448
-7.57793
-7.59195
-7.60654
-7.6217
-7.63744
-7.65376
-7.67065
-7.6881
-7.7061
-7.72463
-7.74369
-7.76324
-7.78327
-7.80373
-7.82459
-7.84581
-7.86734
-7.88913
-7.91112
-7.93323
-7.95542
-7.97759
-7.99968
-8.02159
-8.04325
-8.06456
-8.08542
-8.10573
-8.12539
-8.14428
-8.16229
-8.17932
-8.19523
-8.20991
-8.22323
-8.23504
-8.24521
-8.2536
-8.26006
-8.2644
-8.26646
-8.26602
-8.26284
-8.25667
-8.2472
-8.23411
-8.21699
-8.19543
-8.16891
-8.13692
-8.09885
-8.05406
-8.00186
-7.94168
-7.87307
-7.79498
-7.70568
-7.60486
-7.49294
-7.36952
-7.23419
-7.08652
-6.92616
-6.75276
-6.56602
-6.3657
-6.15164
-5.92373
-5.682
-5.42652
-5.15734
-4.87483
-4.57954
-4.27208
-3.95314
-3.62364
-3.28468
-2.93707
-2.58182
-2.22057
-1.85491
-1.48644
-1.11658
-0.746739
-0.378744
-0.0144381
0.344547
0.69677
1.04064
1.37459
1.6973
2.00763
2.30444
2.58678
2.85391
3.10529
3.34045
3.55915
3.76131
3.94705
4.1166
4.27034
4.40878
4.53258
4.6425
4.73939
4.82418
4.8979
4.96161
5.01648
5.06369
5.10446
5.14012
5.17191
5.20115
5.22923
5.25736
5.28719
5.31917
5.35779
5.39407
5.46616
5.44785
-7.33942
-7.34037
-7.34178
-7.34306
-7.34411
-7.34501
-7.3458
-7.34651
-7.34716
-7.34776
-7.34831
-7.34884
-7.34937
-7.34991
-7.35048
-7.35111
-7.35181
-7.35261
-7.3535
-7.35451
-7.35565
-7.35692
-7.35833
-7.3599
-7.36164
-7.36354
-7.36563
-7.36791
-7.37038
-7.37307
-7.37597
-7.3791
-7.38247
-7.38608
-7.38995
-7.3941
-7.39852
-7.40324
-7.40826
-7.41361
-7.41929
-7.42532
-7.43172
-7.43849
-7.44565
-7.45323
-7.46122
-7.46966
-7.47855
-7.48791
-7.49775
-7.50809
-7.51894
-7.53031
-7.54222
-7.55468
-7.5677
-7.58129
-7.59545
-7.61019
-7.62551
-7.64142
-7.65791
-7.67497
-7.6926
-7.71078
-7.72951
-7.74876
-7.76851
-7.78872
-7.80938
-7.83044
-7.85185
-7.87357
-7.89553
-7.91769
-7.93996
-7.96229
-7.98461
-8.00682
-8.02885
-8.05061
-8.072
-8.09293
-8.11331
-8.13301
-8.15195
-8.17
-8.18707
-8.20303
-8.21777
-8.23117
-8.24307
-8.25336
-8.2619
-8.26855
-8.27315
-8.27553
-8.27546
-8.27274
-8.26709
-8.25823
-8.24581
-8.22945
-8.20868
-8.18302
-8.15189
-8.11467
-8.07068
-8.01926
-7.95996
-7.89205
-7.81363
-7.72353
-7.62233
-7.51009
-7.38634
-7.25062
-7.10252
-6.94161
-6.76755
-6.58002
-6.37875
-6.16358
-5.93438
-5.69118
-5.43411
-5.16312
-4.8785
-4.58092
-4.27095
-3.94932
-3.61691
-3.2748
-2.92401
-2.56561
-2.20112
-1.83211
-1.46019
-1.08696
-0.714009
-0.343092
0.024
0.385572
0.740046
1.08582
1.42135
1.7453
2.05646
2.35371
2.63612
2.90292
3.15357
3.38765
3.60491
3.80531
3.98898
4.15617
4.30731
4.44294
4.56373
4.67047
4.76405
4.84542
4.91565
4.97581
5.02709
5.07073
5.10793
5.14002
5.16832
5.19411
5.21881
5.24366
5.2703
5.29924
5.33491
5.3685
5.43816
5.41563
-7.33994
-7.34087
-7.34225
-7.34353
-7.34457
-7.34545
-7.34623
-7.34691
-7.34752
-7.34808
-7.34858
-7.34906
-7.34954
-7.35004
-7.35058
-7.3512
-7.3519
-7.35271
-7.35363
-7.35467
-7.35585
-7.35717
-7.35864
-7.36028
-7.36208
-7.36405
-7.36622
-7.36857
-7.37113
-7.37389
-7.37687
-7.38008
-7.38352
-7.38721
-7.39116
-7.39537
-7.39987
-7.40466
-7.40976
-7.41517
-7.42092
-7.42702
-7.43349
-7.44034
-7.44758
-7.45523
-7.46331
-7.47183
-7.48081
-7.49026
-7.5002
-7.51064
-7.5216
-7.53309
-7.54512
-7.5577
-7.57085
-7.58458
-7.59888
-7.61377
-7.62925
-7.64531
-7.66196
-7.67918
-7.69698
-7.71533
-7.73423
-7.75365
-7.77356
-7.79394
-7.81475
-7.83596
-7.85751
-7.87936
-7.90144
-7.92369
-7.94605
-7.96844
-7.99079
-8.01303
-8.03506
-8.05681
-8.07817
-8.09905
-8.11935
-8.13898
-8.15783
-8.1758
-8.19277
-8.20865
-8.22333
-8.23668
-8.24854
-8.25882
-8.26741
-8.27416
-8.27893
-8.28153
-8.28178
-8.27944
-8.27426
-8.26594
-8.25415
-8.23848
-8.21847
-8.19359
-8.16325
-8.12678
-8.08353
-8.03295
-7.97444
-7.90641
-7.82694
-7.73606
-7.63451
-7.52195
-7.39786
-7.26176
-7.11319
-6.95172
-6.77696
-6.58858
-6.38631
-6.16992
-5.93931
-5.69445
-5.43546
-5.16245
-4.87563
-4.57556
-4.26286
-3.93827
-3.60269
-3.25718
-2.90288
-2.54102
-2.17306
-1.80056
-1.42517
-1.04856
-0.672449
-0.298609
0.0711644
0.435134
0.791652
1.13909
1.47592
1.80075
2.11237
2.40967
2.6917
2.95773
3.2072
3.43972
3.65509
3.85327
4.03442
4.19883
4.34696
4.47937
4.59678
4.70001
4.78997
4.86765
4.93414
4.99055
5.03807
5.07798
5.1115
5.13996
5.16471
5.18706
5.20841
5.23005
5.25361
5.27963
5.31248
5.34362
5.41066
5.38516
-7.34079
-7.3417
-7.34307
-7.34433
-7.34534
-7.34617
-7.34688
-7.3475
-7.34803
-7.3485
-7.34892
-7.34931
-7.34971
-7.35014
-7.35064
-7.35123
-7.35193
-7.35274
-7.35367
-7.35475
-7.35596
-7.35733
-7.35886
-7.36055
-7.36242
-7.36448
-7.36672
-7.36915
-7.37178
-7.37463
-7.37769
-7.38098
-7.3845
-7.38826
-7.39228
-7.39657
-7.40113
-7.40599
-7.41115
-7.41663
-7.42245
-7.42862
-7.43515
-7.44206
-7.44938
-7.45711
-7.46526
-7.47387
-7.48293
-7.49247
-7.50251
-7.51305
-7.52411
-7.5357
-7.54784
-7.56054
-7.57381
-7.58766
-7.60209
-7.61711
-7.63272
-7.64891
-7.66569
-7.68304
-7.70096
-7.71944
-7.73845
-7.75797
-7.77797
-7.79843
-7.81931
-7.84056
-7.86214
-7.884
-7.90608
-7.92829
-7.95057
-7.97286
-7.99509
-8.01718
-8.03905
-8.0606
-8.08175
-8.1024
-8.12245
-8.14182
-8.1604
-8.1781
-8.19482
-8.21045
-8.22491
-8.23807
-8.24979
-8.25995
-8.26848
-8.27524
-8.28009
-8.28286
-8.28336
-8.28136
-8.27662
-8.26884
-8.25766
-8.24268
-8.22341
-8.19931
-8.16974
-8.13406
-8.09167
-8.04197
-7.98355
-7.91407
-7.83319
-7.74199
-7.64024
-7.52746
-7.4031
-7.26667
-7.11768
-6.95567
-6.78024
-6.59101
-6.3877
-6.17006
-5.93796
-5.69136
-5.43033
-5.15505
-4.86578
-4.56302
-4.24738
-3.91964
-3.5807
-3.23165
-2.8737
-2.50816
-2.13652
-1.76038
-1.38143
-1.00142
-0.622123
-0.245373
0.127002
0.493224
0.851594
1.20046
1.53828
1.86366
2.17536
2.47228
2.7535
3.01829
3.2661
3.4966
3.70958
3.90507
4.08325
4.24444
4.38914
4.51796
4.63164
4.73103
4.81709
4.89082
4.95336
5.00584
5.04945
5.08553
5.1153
5.14011
5.16133
5.18027
5.19836
5.21689
5.2375
5.26079
5.29096
5.31992
5.38419
5.35697
-7.34199
-7.34291
-7.34428
-7.34551
-7.34645
-7.34719
-7.34779
-7.34828
-7.34868
-7.34901
-7.34929
-7.34955
-7.34984
-7.35019
-7.35063
-7.35118
-7.35185
-7.35266
-7.3536
-7.35469
-7.35594
-7.35735
-7.35893
-7.36069
-7.36263
-7.36476
-7.36708
-7.3696
-7.37232
-7.37525
-7.3784
-7.38176
-7.38536
-7.3892
-7.39329
-7.39764
-7.40227
-7.40719
-7.41241
-7.41795
-7.42382
-7.43005
-7.43664
-7.44362
-7.451
-7.4588
-7.46703
-7.4757
-7.48484
-7.49446
-7.50458
-7.5152
-7.52634
-7.53802
-7.55025
-7.56304
-7.5764
-7.59033
-7.60484
-7.61994
-7.63561
-7.65186
-7.66868
-7.68606
-7.704
-7.72247
-7.74145
-7.76093
-7.78087
-7.80123
-7.82199
-7.8431
-7.86451
-7.88617
-7.90803
-7.93
-7.95199
-7.97397
-7.99587
-8.0176
-8.03908
-8.06023
-8.08096
-8.10118
-8.12079
-8.13971
-8.15785
-8.17511
-8.19139
-8.20662
-8.22069