/*--------------------------------*- C++ -*----------------------------------*\
| =========                 |                                                 |
| \\      /  F ield         | OpenFOAM: The Open Source CFD Toolbox           |
|  \\    /   O peration     | Version:  1.4.2                                 |
|   \\  /    A nd           | Web:      http://www.openfoam.org               |
|    \\/     M anipulation  |                                                 |
\*---------------------------------------------------------------------------*/
FoamFile
{
    version     2.0;
    format      ascii;
    class       surfaceScalarField;
    object      phi;
    location    "750";
}
// * * * * * * * * * * * * * * * * * * * * * * * * * * * * * * * * * * * * * //

dimensions      [0 3 -1 0 0 0 0];

internalField   nonuniform List<scalar> 
24170
(
3.03918e-06
9.471e-08
2.96659e-06
7.25929e-08
2.90197e-06
6.46221e-08
2.84074e-06
6.12329e-08
2.78297e-06
5.77666e-08
2.7289e-06
5.40674e-08
2.67846e-06
5.04444e-08
2.63148e-06
4.69769e-08
2.58782e-06
4.36578e-08
2.54734e-06
4.04796e-08
2.5099e-06
3.74374e-08
2.47538e-06
3.45205e-08
2.44367e-06
3.17078e-08
2.41471e-06
2.89599e-08
2.38851e-06
2.61998e-08
2.36526e-06
2.32497e-08
2.3455e-06
1.97629e-08
9.58872e-09
2.33591e-06
3.46199e-06
8.91625e-08
3.45386e-06
8.07236e-08
3.44442e-06
7.40672e-08
3.43379e-06
7.18592e-08
3.42224e-06
6.93152e-08
3.41017e-06
6.61406e-08
3.39779e-06
6.2817e-08
3.38527e-06
5.95049e-08
3.37271e-06
5.62174e-08
3.36023e-06
5.29573e-08
3.34794e-06
4.97262e-08
3.33595e-06
4.65125e-08
3.32437e-06
4.32829e-08
3.31336e-06
3.99668e-08
3.30314e-06
3.6418e-08
3.29408e-06
3.23118e-08
3.28702e-06
2.68223e-08
1.73018e-08
3.27931e-06
3.82433e-06
7.70289e-08
3.8263e-06
7.87486e-08
3.82561e-06
7.47649e-08
3.82406e-06
7.34082e-08
3.82188e-06
7.14891e-08
3.81926e-06
6.87659e-08
3.81633e-06
6.57445e-08
3.8132e-06
6.26363e-08
3.80993e-06
5.94839e-08
3.80659e-06
5.63015e-08
3.80322e-06
5.30935e-08
3.79989e-06
4.9844e-08
3.79666e-06
4.65085e-08
3.79363e-06
4.29973e-08
3.79091e-06
3.91404e-08
3.7886e-06
3.46152e-08
3.78659e-06
2.88323e-08
2.07545e-08
3.78314e-06
4.2169e-06
6.46896e-08
4.22212e-06
7.35248e-08
4.2243e-06
7.25846e-08
4.22556e-06
7.21488e-08
4.22628e-06
7.07733e-08
4.22659e-06
6.84576e-08
4.22662e-06
6.57086e-08
4.22649e-06
6.27715e-08
4.22625e-06
5.97221e-08
4.22596e-06
5.6591e-08
4.22566e-06
5.33888e-08
4.22541e-06
5.0101e-08
4.22523e-06
4.66812e-08
4.22519e-06
4.30395e-08
4.22531e-06
3.90214e-08
4.22554e-06
3.43779e-08
4.2256e-06
2.87815e-08
2.19501e-08
4.2244e-06
4.6487e-06
5.32996e-08
4.65545e-06
6.67754e-08
4.65932e-06
6.87124e-08
4.66212e-06
6.93472e-08
4.66432e-06
6.85714e-08
4.6661e-06
6.66828e-08
4.66758e-06
6.42242e-08
4.66888e-06
6.14747e-08
4.67006e-06
5.85425e-08
4.67117e-06
5.54767e-08
4.67226e-06
5.22972e-08
4.67337e-06
4.8995e-08
4.67452e-06
4.55301e-08
4.67573e-06
4.18263e-08
4.67699e-06
3.77639e-08
4.67819e-06
3.31823e-08
4.67902e-06
2.79441e-08
2.21035e-08
4.67887e-06
5.12456e-06
4.33386e-08
5.132e-06
5.93313e-08
5.13708e-06
6.36347e-08
5.14108e-06
6.53424e-08
5.14441e-06
6.52486e-08
5.14723e-06
6.38543e-08
5.14972e-06
6.17364e-08
5.15198e-06
5.92132e-08
5.1541e-06
5.64303e-08
5.15611e-06
5.34605e-08
5.15807e-06
5.03367e-08
5.16001e-06
4.70601e-08
5.16193e-06
4.36033e-08
5.16385e-06
3.99113e-08
5.16571e-06
3.59062e-08
5.16738e-06
3.15049e-08
5.16864e-06
2.6688e-08
2.16331e-08
5.16911e-06
5.64939e-06
3.49583e-08
5.65697e-06
5.1748e-08
5.66284e-06
5.7764e-08
5.66779e-06
6.0397e-08
5.67206e-06
6.09723e-08
5.67582e-06
6.01035e-08
5.67918e-06
5.83743e-08
5.68226e-06
5.61293e-08
5.68515e-06
5.35447e-08
5.68789e-06
5.07159e-08
5.69054e-06
4.76924e-08
5.6931e-06
4.44904e-08
5.69561e-06
4.10999e-08
5.69803e-06
3.74919e-08
5.7003e-06
3.36293e-08
5.70232e-06
2.94881e-08
5.7039e-06
2.51129e-08
2.07033e-08
5.70483e-06
4.4112e-06
2.98653e-08
4.41651e-06
4.64419e-08
4.42103e-06
5.32445e-08
4.42498e-06
5.64451e-08
4.42851e-06
5.74453e-08
4.43168e-06
5.69314e-08
4.43457e-06
5.54854e-08
4.43724e-06
5.34579e-08
4.43975e-06
5.10394e-08
4.44212e-06
4.83392e-08
4.4444e-06
4.54179e-08
4.44659e-06
4.23027e-08
4.44869e-06
3.89976e-08
4.45069e-06
3.54922e-08
4.45254e-06
3.17749e-08
4.45418e-06
2.78534e-08
4.45549e-06
2.37957e-08
1.97907e-08
4.45641e-06
5.1446e-06
2.51249e-08
5.15008e-06
4.0961e-08
5.15508e-06
4.82465e-08
5.15964e-06
5.18845e-08
5.16382e-06
5.32683e-08
5.16765e-06
5.31014e-08
5.17118e-06
5.19483e-08
5.17448e-06
5.01589e-08
5.17759e-06
4.79339e-08
5.18053e-06
4.53934e-08
5.18334e-06
4.26087e-08
5.18603e-06
3.96186e-08
5.18858e-06
3.64415e-08
5.19099e-06
3.30855e-08
5.1932e-06
2.95617e-08
5.19515e-06
2.59013e-08
5.19677e-06
2.2183e-08
1.85776e-08
5.19798e-06
6.0001e-06
2.08145e-08
6.00563e-06
3.54392e-08
6.01099e-06
4.28795e-08
6.0161e-06
4.67809e-08
6.0209e-06
4.8466e-08
6.02539e-06
4.86101e-08
6.0296e-06
4.77399e-08
6.03356e-06
4.61961e-08
6.03731e-06
4.41838e-08
6.04088e-06
4.18305e-08
6.04427e-06
3.92168e-08
6.04749e-06
3.63925e-08
6.05054e-06
3.33895e-08
6.0534e-06
3.02326e-08
6.05601e-06
2.69507e-08
6.05832e-06
2.359e-08
6.06027e-06
2.02297e-08
1.70169e-08
6.06183e-06
6.99811e-06
1.69712e-08
7.00355e-06
3.00043e-08
7.00917e-06
3.72566e-08
7.01472e-06
4.12273e-08
7.02009e-06
4.30983e-08
7.02521e-06
4.34887e-08
7.03008e-06
4.28705e-08
7.03471e-06
4.15649e-08
7.03912e-06
3.97743e-08
7.04332e-06
3.76299e-08
7.04732e-06
3.52186e-08
7.05111e-06
3.25997e-08
7.05469e-06
2.98166e-08
7.05801e-06
2.69069e-08
7.06105e-06
2.39115e-08
7.06376e-06
2.08831e-08
7.06609e-06
1.78949e-08
1.50683e-08
7.06804e-06
8.1624e-06
1.35818e-08
8.16765e-06
2.47608e-08
8.17342e-06
3.14898e-08
8.17932e-06
3.53255e-08
8.18517e-06
3.72459e-08
8.19087e-06
3.77954e-08
8.19636e-06
3.73806e-08
8.20163e-06
3.62919e-08
8.20668e-06
3.47222e-08
8.21151e-06
3.28012e-08
8.21611e-06
3.06191e-08
8.22047e-06
2.82413e-08
8.22456e-06
2.57193e-08
8.22837e-06
2.30989e-08
8.23186e-06
2.04266e-08
8.23498e-06
1.77552e-08
8.23773e-06
1.5148e-08
1.27018e-08
8.2401e-06
9.52072e-06
1.05926e-08
9.52571e-06
1.97719e-08
9.53152e-06
2.56747e-08
9.53768e-06
2.91687e-08
9.54393e-06
3.09923e-08
9.55013e-06
3.15998e-08
9.55618e-06
3.13271e-08
9.56205e-06
3.04243e-08
9.56771e-06
2.90671e-08
9.57313e-06
2.73781e-08
9.5783e-06
2.54465e-08
9.5832e-06
2.334e-08
9.58781e-06
2.11134e-08
9.59209e-06
1.88156e-08
9.59602e-06
1.64934e-08
9.59958e-06
1.41951e-08
9.60276e-06
1.19725e-08
9.90075e-09
9.60556e-06
1.11054e-05
7.92598e-09
1.11101e-05
1.505e-08
1.11159e-05
1.98752e-08
1.11222e-05
2.28259e-08
1.11288e-05
2.44047e-08
1.11355e-05
2.49632e-08
1.1142e-05
2.47643e-08
1.11484e-05
2.4011e-08
1.11547e-05
2.28533e-08
1.11606e-05
2.14013e-08
1.11663e-05
1.97374e-08
1.11718e-05
1.79266e-08
1.11768e-05
1.60225e-08
1.11816e-05
1.40719e-08
1.1186e-05
1.21177e-08
1.119e-05
1.02011e-08
1.11936e-05
8.36257e-09
6.65939e-09
1.11968e-05
1.29541e-05
5.4922e-09
1.29586e-05
1.05525e-08
1.29643e-05
1.41061e-08
1.29708e-05
1.6327e-08
1.29777e-05
1.75171e-08
1.29848e-05
1.792e-08
1.29918e-05
1.77246e-08
1.29987e-05
1.70819e-08
1.30055e-05
1.61092e-08
1.3012e-05
1.48967e-08
1.30182e-05
1.35145e-08
1.30241e-05
1.20194e-08
1.30297e-05
1.04586e-08
1.30349e-05
8.87294e-09
1.30397e-05
7.29854e-09
1.30441e-05
5.7679e-09
1.30482e-05
4.31157e-09
2.97246e-09
1.30519e-05
1.51108e-05
3.19121e-09
1.51151e-05
6.17759e-09
1.51209e-05
8.30974e-09
1.51276e-05
9.6369e-09
1.51348e-05
1.0306e-08
1.51423e-05
1.04547e-08
1.51498e-05
1.01967e-08
1.51573e-05
9.62761e-09
1.51646e-05
8.82577e-09
1.51716e-05
7.85469e-09
1.51783e-05
6.76615e-09
1.51848e-05
5.60333e-09
1.51908e-05
4.40284e-09
1.51965e-05
3.19618e-09
1.52018e-05
2.01051e-09
1.52067e-05
8.69545e-10
1.52112e-05
-2.04987e-10
-1.18141e-09
1.52154e-05
1.76267e-05
8.98043e-10
1.76312e-05
1.7383e-09
1.76372e-05
2.31248e-09
1.76442e-05
2.6066e-09
1.76519e-05
2.64414e-09
1.76599e-05
2.45926e-09
1.7668e-05
2.08826e-09
1.7676e-05
1.567e-09
1.76839e-05
9.29335e-10
1.76916e-05
2.06196e-10
1.76989e-05
-5.74452e-10
1.77059e-05
-1.3875e-09
1.77125e-05
-2.21053e-09
1.77187e-05
-3.0238e-09
1.77246e-05
-3.81017e-09
1.773e-05
-4.55476e-09
1.7735e-05
-5.24358e-09
-5.85397e-09
1.77397e-05
1.78284e-05
-1.28156e-09
1.78326e-05
-2.49644e-09
1.78383e-05
-3.42326e-09
1.78451e-05
-4.12846e-09
1.78524e-05
-4.70279e-09
1.78601e-05
-5.21087e-09
1.78679e-05
-5.69113e-09
1.78756e-05
-6.16539e-09
1.78832e-05
-6.64393e-09
1.78905e-05
-7.12857e-09
1.78976e-05
-7.61562e-09
1.79043e-05
-8.09831e-09
1.79106e-05
-8.56842e-09
1.79166e-05
-9.01742e-09
1.79222e-05
-9.43722e-09
1.79275e-05
-9.82031e-09
1.79324e-05
-1.01587e-08
-1.04368e-08
1.7937e-05
1.58834e-05
-3.33637e-09
1.58873e-05
-6.42818e-09
1.58926e-05
-8.66021e-09
1.58986e-05
-1.01915e-08
1.59052e-05
-1.12468e-08
1.59119e-05
-1.19877e-08
1.59188e-05
-1.25208e-08
1.59255e-05
-1.29198e-08
1.59321e-05
-1.32338e-08
1.59385e-05
-1.34926e-08
1.59446e-05
-1.37129e-08
1.59504e-05
-1.39031e-08
1.59559e-05
-1.40664e-08
1.59611e-05
-1.42031e-08
1.59659e-05
-1.43121e-08
1.59705e-05
-1.43911e-08
1.59748e-05
-1.44364e-08
-1.44373e-08
1.59788e-05
1.41508e-05
-5.47369e-09
1.41548e-05
-1.03915e-08
1.41599e-05
-1.37582e-08
1.41656e-05
-1.59336e-08
1.41717e-05
-1.73238e-08
1.41779e-05
-1.81884e-08
1.41841e-05
-1.86982e-08
1.41901e-05
-1.89746e-08
1.4196e-05
-1.91002e-08
1.42016e-05
-1.91277e-08
1.4207e-05
-1.90898e-08
1.42121e-05
-1.90064e-08
1.42169e-05
-1.88893e-08
1.42215e-05
-1.87454e-08
1.42257e-05
-1.85785e-08
1.42297e-05
-1.83904e-08
1.42335e-05
-1.81803e-08
-1.79414e-08
1.4237e-05
1.26074e-05
-7.88512e-09
1.26117e-05
-1.46382e-08
1.26169e-05
-1.89396e-08
1.26225e-05
-2.15516e-08
1.26283e-05
-2.31156e-08
1.26341e-05
-2.3982e-08
1.26397e-05
-2.43803e-08
1.26452e-05
-2.44758e-08
1.26505e-05
-2.43789e-08
1.26556e-05
-2.41592e-08
1.26603e-05
-2.38607e-08
1.26648e-05
-2.35113e-08
1.26691e-05
-2.31286e-08
1.2673e-05
-2.27236e-08
1.26768e-05
-2.23034e-08
1.26803e-05
-2.18728e-08
1.26835e-05
-2.14334e-08
-2.09816e-08
1.26865e-05
1.12327e-05
-1.07903e-08
1.12374e-05
-1.93722e-08
1.12428e-05
-2.43237e-08
1.12484e-05
-2.71268e-08
1.1254e-05
-2.86872e-08
1.12594e-05
-2.94218e-08
1.12646e-05
-2.96128e-08
1.12696e-05
-2.94643e-08
1.12744e-05
-2.91067e-08
1.12788e-05
-2.86201e-08
1.1283e-05
-2.80549e-08
1.12869e-05
-2.7443e-08
1.12906e-05
-2.68048e-08
1.1294e-05
-2.61534e-08
1.12972e-05
-2.54976e-08
1.13002e-05
-2.48438e-08
1.1303e-05
-2.41956e-08
-2.35529e-08
1.13055e-05
1.00083e-05
-1.44615e-08
1.00137e-05
-2.47415e-08
1.00193e-05
-2.99227e-08
1.00248e-05
-3.2629e-08
1.00301e-05
-3.39931e-08
1.00351e-05
-3.44552e-08
1.00398e-05
-3.43434e-08
1.00443e-05
-3.38918e-08
1.00484e-05
-3.32407e-08
1.00522e-05
-3.24728e-08
1.00558e-05
-3.16395e-08
1.00592e-05
-3.07729e-08
1.00622e-05
-2.9893e-08
1.00651e-05
-2.90125e-08
1.00677e-05
-2.81402e-08
1.00702e-05
-2.72828e-08
1.00724e-05
-2.64459e-08
-2.56332e-08
1.00745e-05
8.91786e-06
-1.9224e-08
8.92391e-06
-3.07943e-08
8.92961e-06
-3.56154e-08
8.93488e-06
-3.79052e-08
8.93977e-06
-3.8877e-08
8.94425e-06
-3.89353e-08
8.94834e-06
-3.84424e-08
8.9521e-06
-3.76474e-08
8.95555e-06
-3.66873e-08
8.95871e-06
-3.56394e-08
8.96162e-06
-3.45504e-08
8.9643e-06
-3.34487e-08
8.96676e-06
-3.23511e-08
8.96901e-06
-3.12674e-08
8.97107e-06
-3.02042e-08
8.97296e-06
-2.91671e-08
8.97467e-06
-2.81631e-08
-2.72009e-08
8.97624e-06
7.94686e-06
-2.54187e-08
7.95348e-06
-3.74091e-08
7.95898e-06
-4.11158e-08
7.96375e-06
-4.26746e-08
7.96796e-06
-4.30883e-08
7.97167e-06
-4.26502e-08
7.97497e-06
-4.17365e-08
7.97791e-06
-4.05925e-08
7.98056e-06
-3.93382e-08
7.98296e-06
-3.80364e-08
7.98513e-06
-3.6724e-08
7.9871e-06
-3.54223e-08
7.9889e-06
-3.41427e-08
7.99052e-06
-3.28906e-08
7.99198e-06
-3.16685e-08
7.99329e-06
-3.04788e-08
7.99446e-06
-2.93282e-08
-2.82308e-08
7.99549e-06
7.08223e-06
-3.3315e-08
7.08902e-06
-4.42006e-08
7.09386e-06
-4.59547e-08
7.09773e-06
-4.65461e-08
7.10096e-06
-4.6318e-08
7.10367e-06
-4.53642e-08
7.10598e-06
-4.40484e-08
7.10798e-06
-4.25928e-08
7.10973e-06
-4.10882e-08
7.11127e-06
-3.95768e-08
7.11263e-06
-3.80835e-08
7.11383e-06
-3.66221e-08
7.11489e-06
-3.51987e-08
7.11581e-06
-3.38139e-08
7.11661e-06
-3.24655e-08
7.11728e-06
-3.11496e-08
7.11782e-06
-2.9868e-08
-2.86338e-08
7.11822e-06
6.31217e-06
-4.29771e-08
6.31832e-06
-5.03488e-08
6.32184e-06
-4.94693e-08
6.32435e-06
-4.90561e-08
6.32625e-06
-4.82181e-08
6.32768e-06
-4.67949e-08
6.32876e-06
-4.51287e-08
6.32958e-06
-4.34109e-08
6.33019e-06
-4.17013e-08
6.33063e-06
-4.00231e-08
6.33094e-06
-3.83905e-08
6.33113e-06
-3.68105e-08
6.33121e-06
-3.5284e-08
6.3312e-06
-3.38072e-08
6.33111e-06
-3.23717e-08
6.33093e-06
-3.09644e-08
6.33063e-06
-2.95723e-08
-2.81833e-08
6.33018e-06
5.62586e-06
-5.39351e-08
5.62969e-06
-5.4177e-08
5.63084e-06
-5.06266e-08
5.63117e-06
-4.93803e-08
5.63092e-06
-4.79642e-08
5.63023e-06
-4.61118e-08
5.62926e-06
-4.41529e-08
5.62808e-06
-4.22327e-08
5.62675e-06
-4.03765e-08
5.62531e-06
-3.85886e-08
5.6238e-06
-3.68724e-08
5.62221e-06
-3.52283e-08
5.62058e-06
-3.36528e-08
5.61891e-06
-3.21386e-08
5.61721e-06
-3.06728e-08
5.61548e-06
-2.92311e-08
5.61368e-06
-2.77724e-08
-2.61747e-08
5.61167e-06
5.01053e-06
-6.21609e-08
5.00697e-06
-5.06112e-08
5.00192e-06
-4.55815e-08
4.99617e-06
-4.36249e-08
4.98988e-06
-4.1674e-08
4.98331e-06
-3.95493e-08
4.97663e-06
-3.74734e-08
4.96992e-06
-3.55149e-08
4.96321e-06
-3.3668e-08
4.95654e-06
-3.19221e-08
4.94993e-06
-3.0271e-08
4.94341e-06
-2.8709e-08
4.93699e-06
-2.72297e-08
4.93068e-06
-2.58252e-08
4.92449e-06
-2.44837e-08
4.91844e-06
-2.31801e-08
4.91252e-06
-2.18557e-08
-2.00701e-08
4.90641e-06
4.39439e-06
4.34378e-06
4.2982e-06
4.25457e-06
4.2129e-06
4.17335e-06
4.13587e-06
4.10036e-06
4.06669e-06
4.03477e-06
4.00449e-06
3.97579e-06
3.94856e-06
3.92273e-06
3.89825e-06
3.87507e-06
3.85321e-06
3.83314e-06
2.70399e-09
-2.7039e-09
7.09163e-09
-4.38337e-09
1.18006e-08
-4.70541e-09
1.60551e-08
-4.25253e-09
1.94166e-08
-3.36018e-09
2.16679e-08
-2.2504e-09
2.27313e-08
-1.06275e-09
2.26087e-08
1.2323e-10
2.13665e-08
1.24301e-09
1.91119e-08
2.256e-09
1.59564e-08
3.15754e-09
1.20019e-08
3.95726e-09
7.32293e-09
4.6827e-09
1.97106e-09
5.35589e-09
-4.01568e-09
5.99126e-09
-1.06049e-08
6.59338e-09
-1.77725e-08
7.17108e-09
-2.55061e-08
7.73599e-09
-3.38005e-08
8.29522e-09
-4.26533e-08
8.85212e-09
-5.20638e-08
9.40828e-09
-6.20319e-08
9.96433e-09
-7.25572e-08
1.05205e-08
-8.36392e-08
1.10767e-08
-9.52771e-08
1.16327e-08
-1.0747e-07
1.21884e-08
-1.20217e-07
1.27436e-08
-1.33516e-07
1.32978e-08
-1.47367e-07
1.38507e-08
-1.61768e-07
1.44017e-08
-1.76716e-07
1.49503e-08
-1.9221e-07
1.54957e-08
-2.08246e-07
1.60376e-08
-2.2482e-07
1.65753e-08
-2.41928e-07
1.71085e-08
-2.59564e-07
1.76368e-08
-2.77724e-07
1.816e-08
-2.96402e-07
1.8678e-08
-3.15592e-07
1.91906e-08
-3.35289e-07
1.96978e-08
-3.55487e-07
2.01996e-08
-3.76182e-07
2.06959e-08
-3.97368e-07
2.11866e-08
-4.19039e-07
2.16718e-08
-4.41191e-07
2.21515e-08
-4.63817e-07
2.26257e-08
-4.86912e-07
2.30943e-08
-5.10469e-07
2.35574e-08
-5.34485e-07
2.40147e-08
-5.58952e-07
2.44661e-08
-5.83865e-07
2.49113e-08
-6.09216e-07
2.53499e-08
-6.34999e-07
2.57816e-08
-6.61206e-07
2.62059e-08
-6.87828e-07
2.66224e-08
-7.14858e-07
2.70302e-08
-7.42285e-07
2.74284e-08
-7.70099e-07
2.78155e-08
-7.98287e-07
2.81897e-08
-8.26834e-07
2.85487e-08
-8.55723e-07
2.889e-08
-8.84932e-07
2.92102e-08
-9.14438e-07
2.9506e-08
-9.44212e-07
2.97747e-08
-9.74228e-07
3.00163e-08
-1.00446e-06
3.02364e-08
-1.03491e-06
3.04457e-08
-1.06557e-06
3.06619e-08
-1.09649e-06
3.09282e-08
-1.12789e-06
3.13933e-08
-1.15965e-06
3.17694e-08
-1.19158e-06
3.19228e-08
-1.22368e-06
3.21039e-08
-1.25598e-06
3.22999e-08
-1.28847e-06
3.24945e-08
-1.32116e-06
3.26783e-08
-1.354e-06
3.28461e-08
-1.387e-06
3.29947e-08
-1.42013e-06
3.3122e-08
-1.45335e-06
3.32266e-08
-1.48666e-06
3.33071e-08
-1.52003e-06
3.33627e-08
-1.55342e-06
3.33924e-08
-1.58681e-06
3.33955e-08
-1.62018e-06
3.33713e-08
-1.6535e-06
3.33189e-08
-1.68674e-06
3.32375e-08
-1.71986e-06
3.3126e-08
-1.75285e-06
3.29837e-08
-1.78566e-06
3.28095e-08
-1.81826e-06
3.26022e-08
-1.85062e-06
3.23603e-08
-1.88271e-06
3.20817e-08
-1.91447e-06
3.17642e-08
-1.94588e-06
3.14051e-08
-1.97688e-06
3.10006e-08
-2.00743e-06
3.05466e-08
-2.03747e-06
3.00383e-08
-2.06694e-06
2.94709e-08
-2.09578e-06
2.88387e-08
-2.12392e-06
2.81354e-08
-2.15127e-06
2.7354e-08
-2.17776e-06
2.64863e-08
-2.20328e-06
2.55244e-08
-2.22774e-06
2.44611e-08
-2.25103e-06
2.329e-08
-2.27304e-06
2.20048e-08
-2.29363e-06
2.05993e-08
-2.3127e-06
1.90681e-08
-2.33011e-06
1.74084e-08
-2.34573e-06
1.56192e-08
-2.35943e-06
1.37004e-08
-2.37108e-06
1.16521e-08
-2.38055e-06
9.47447e-09
-2.38772e-06
7.16809e-09
-2.39246e-06
4.73483e-09
-2.39463e-06
2.17683e-09
-2.39413e-06
-5.01064e-10
-2.39086e-06
-3.27537e-09
-2.38473e-06
-6.12775e-09
-2.37567e-06
-9.05803e-09
-2.36361e-06
-1.20614e-08
-2.34848e-06
-1.51331e-08
-2.33022e-06
-1.82664e-08
-2.30877e-06
-2.14509e-08
-2.2841e-06
-2.4674e-08
-2.25618e-06
-2.79237e-08
-2.22499e-06
-3.11879e-08
-2.19053e-06
-3.44513e-08
-2.15284e-06
-3.76946e-08
-2.11194e-06
-4.08976e-08
-2.06789e-06
-4.40409e-08
-2.02078e-06
-4.71045e-08
-1.97072e-06
-5.00654e-08
-1.91782e-06
-5.28987e-08
-1.86223e-06
-5.55798e-08
-1.80415e-06
-5.8085e-08
-1.74376e-06
-6.03908e-08
-1.68128e-06
-6.24735e-08
-1.61697e-06
-6.43108e-08
-1.55109e-06
-6.58818e-08
-1.48392e-06
-6.71674e-08
-1.41576e-06
-6.81504e-08
-1.34694e-06
-6.88165e-08
-1.27778e-06
-6.91563e-08
-1.20861e-06
-6.91627e-08
-1.13979e-06
-6.88288e-08
-1.07164e-06
-6.81493e-08
-1.00451e-06
-6.7125e-08
-9.38739e-07
-6.5769e-08
-8.74644e-07
-6.40955e-08
-8.12548e-07
-6.21052e-08
-7.52744e-07
-5.98067e-08
-6.95496e-07
-5.72424e-08
-6.41069e-07
-5.44316e-08
-5.89688e-07
-5.13823e-08
-5.41544e-07
-4.81386e-08
-4.96815e-07
-4.47333e-08
-4.55616e-07
-4.11921e-08
-4.18047e-07
-3.7555e-08
-3.84177e-07
-3.3864e-08
-3.54016e-07
-3.01554e-08
-3.27547e-07
-2.64643e-08
-3.04714e-07
-2.28321e-08
-2.8542e-07
-1.9297e-08
-2.69541e-07
-1.58876e-08
-2.56905e-07
-1.26417e-08
-2.47332e-07
-9.57997e-09
-2.40581e-07
-6.75394e-09
-2.36428e-07
-4.16193e-09
-2.34576e-07
-1.84224e-09
-2.34779e-07
1.95337e-10
-2.36712e-07
1.94371e-09
-2.40082e-07
3.36958e-09
-2.44458e-07
4.38201e-09
-2.49395e-07
4.94527e-09
-2.53795e-07
4.39637e-09
-2.56869e-07
3.07286e-09
-2.53591e-07
-3.28558e-09
-8.75377e-09
-2.4484e-07
3.46916e-09
-6.16869e-09
7.12537e-09
-8.03373e-09
9.82468e-09
-7.40038e-09
1.14206e-08
-5.84565e-09
1.19183e-08
-3.85559e-09
1.13125e-08
-1.64256e-09
9.60792e-09
6.43905e-10
6.84505e-09
2.88819e-09
3.07915e-09
5.01113e-09
-1.6388e-09
6.97654e-09
-7.24624e-09
8.76793e-09
-1.36752e-08
1.03895e-08
-2.08596e-08
1.18709e-08
-2.87383e-08
1.32383e-08
-3.72551e-08
1.45114e-08
-4.63662e-08
1.57071e-08
-5.60375e-08
1.68437e-08
-6.62382e-08
1.79366e-08
-7.69422e-08
1.89973e-08
-8.81277e-08
2.00338e-08
-9.97768e-08
2.10521e-08
-1.11875e-07
2.20562e-08
-1.24411e-07
2.30493e-08
-1.37374e-07
2.40338e-08
-1.50758e-07
2.50114e-08
-1.64558e-07
2.59835e-08
-1.78768e-07
2.69512e-08
-1.93386e-07
2.7915e-08
-2.0841e-07
2.88752e-08
-2.23839e-07
2.98319e-08
-2.39672e-07
3.07849e-08
-2.5591e-07
3.1734e-08
-2.7255e-07
3.26786e-08
-2.89594e-07
3.36186e-08
-3.07039e-07
3.45535e-08
-3.24887e-07
3.54831e-08
-3.43135e-07
3.64072e-08
-3.61783e-07
3.73256e-08
-3.80831e-07
3.82382e-08
-4.00277e-07
3.91447e-08
-4.20122e-07
4.00451e-08
-4.40364e-07
4.09391e-08
-4.61004e-07
4.18266e-08
-4.82039e-07
4.27075e-08
-5.0347e-07
4.35817e-08
-5.25295e-07
4.44494e-08
-5.47513e-07
4.53103e-08
-5.70121e-07
4.61643e-08
-5.93119e-07
4.70111e-08
-6.16505e-07
4.78502e-08
-6.40276e-07
4.86811e-08
-6.64431e-07
4.95031e-08
-6.88965e-07
5.03155e-08
-7.13877e-07
5.11174e-08
-7.39161e-07
5.19078e-08
-7.64814e-07
5.26854e-08
-7.90832e-07
5.34488e-08
-8.17211e-07
5.41964e-08
-8.43946e-07
5.49263e-08
-8.71032e-07
5.56365e-08
-8.98467e-07
5.63249e-08
-9.26245e-07
5.69895e-08
-9.54367e-07
5.76282e-08
-9.8283e-07
5.82401e-08
-1.01164e-06
5.88256e-08
-1.04078e-06
5.93867e-08
-1.07026e-06
5.99266e-08
-1.10005e-06
6.04529e-08
-1.13011e-06
6.09874e-08
-1.16027e-06
6.15557e-08
-1.19059e-06
6.20853e-08
-1.22119e-06
6.25298e-08
-1.25204e-06
6.29445e-08
-1.28308e-06
6.33389e-08
-1.31429e-06
6.37078e-08
-1.34566e-06
6.40453e-08
-1.37717e-06
6.43466e-08
-1.40878e-06
6.46078e-08
-1.44049e-06
6.48256e-08
-1.47226e-06
6.49973e-08
-1.50408e-06
6.51208e-08
-1.53591e-06
6.5194e-08
-1.56773e-06
6.52151e-08
-1.59952e-06
6.51825e-08
-1.63124e-06
6.50944e-08
-1.66287e-06
6.4949e-08
-1.69438e-06
6.47445e-08
-1.72573e-06
6.44792e-08
-1.7569e-06
6.4151e-08
-1.78785e-06
6.37576e-08
-1.81854e-06
6.32963e-08
-1.84895e-06
6.27636e-08
-1.87902e-06
6.21554e-08
-1.90873e-06
6.14669e-08
-1.93802e-06
6.06921e-08
-1.96684e-06
5.98241e-08
-1.99515e-06
5.88551e-08
-2.02289e-06
5.77762e-08
-2.05e-06
5.65774e-08
-2.07641e-06
5.52475e-08
-2.10205e-06
5.37739e-08
-2.12684e-06
5.21423e-08
-2.15069e-06
5.03383e-08
-2.17351e-06
4.83474e-08
-2.19521e-06
4.61561e-08
-2.21567e-06
4.37506e-08
-2.23478e-06
4.11182e-08
-2.25242e-06
3.82475e-08
-2.26848e-06
3.51298e-08
-2.28283e-06
3.17599e-08
-2.29535e-06
2.81347e-08
-2.3059e-06
2.42537e-08
-2.31437e-06
2.01181e-08
-2.32063e-06
1.57311e-08
-2.32456e-06
1.1096e-08
-2.32604e-06
6.21598e-09
-2.32496e-06
1.09e-09
-2.32122e-06
-4.24653e-09
-2.31475e-06
-9.74638e-09
-2.30548e-06
-1.53993e-08
-2.29333e-06
-2.11989e-08
-2.27826e-06
-2.71359e-08
-2.26019e-06
-3.31983e-08
-2.23909e-06
-3.93698e-08
-2.2149e-06
-4.56303e-08
-2.18761e-06
-5.19579e-08
-2.15721e-06
-5.83285e-08
-2.12368e-06
-6.47139e-08
-2.08705e-06
-7.10806e-08
-2.04736e-06
-7.73918e-08
-2.00465e-06
-8.36094e-08
-1.959e-06
-8.96936e-08
-1.91051e-06
-9.56018e-08
-1.85929e-06
-1.01289e-07
-1.80548e-06
-1.06707e-07
-1.74925e-06
-1.11811e-07
-1.69078e-06
-1.16552e-07
-1.63028e-06
-1.20884e-07
-1.568e-06
-1.2476e-07
-1.50417e-06
-1.2814e-07
-1.43906e-06
-1.30983e-07
-1.37298e-06
-1.33253e-07
-1.30621e-06
-1.34919e-07
-1.23908e-06
-1.35951e-07
-1.17191e-06
-1.36333e-07
-1.10502e-06
-1.36052e-07
-1.03874e-06
-1.351e-07
-9.73417e-07
-1.33472e-07
-9.09358e-07
-1.31182e-07
-8.4688e-07
-1.28248e-07
-7.86279e-07
-1.24685e-07
-7.27846e-07
-1.20524e-07
-6.71849e-07
-1.15803e-07
-6.18517e-07
-1.10571e-07
-5.68067e-07
-1.04872e-07
-5.20691e-07
-9.87553e-08
-4.7654e-07
-9.22876e-08
-4.35737e-07
-8.55372e-08
-3.98366e-07
-7.85688e-08
-3.64479e-07
-7.14534e-08
-3.34091e-07
-6.4263e-08
-3.07178e-07
-5.7072e-08
-2.83681e-07
-4.99612e-08
-2.63505e-07
-4.30055e-08
-2.46516e-07
-3.62761e-08
-2.32554e-07
-2.98401e-08
-2.21418e-07
-2.37626e-08
-2.12892e-07
-1.81056e-08
-2.06714e-07
-1.29211e-08
-2.02621e-07
-8.25557e-09
-2.00306e-07
-4.15691e-09
-1.99458e-07
-6.58061e-10
-1.99721e-07
2.2063e-09
-2.0072e-07
4.36028e-09
-2.01993e-07
5.64821e-09
-2.02955e-07
5.90108e-09
-2.02834e-07
4.27485e-09
-2.00439e-07
6.78642e-10
-1.94043e-07
-9.67622e-09
-1.98418e-08
-1.82953e-07
2.25547e-09
-8.4204e-09
3.57068e-09
-9.34628e-09
3.67974e-09
-7.50788e-09
2.64951e-09
-4.81489e-09
5.53214e-10
-1.75915e-09
-2.52485e-09
1.43559e-09
-6.48645e-09
4.6056e-09
-1.12526e-08
7.65451e-09
-1.6777e-08
1.05359e-08
-2.30232e-08
1.32236e-08
-2.99622e-08
1.5708e-08
-3.7566e-08
1.79951e-08
-4.57961e-08
2.01028e-08
-5.4609e-08
2.20532e-08
-6.39643e-08
2.38686e-08
-7.38264e-08
2.55708e-08
-8.4162e-08
2.71804e-08
-9.49406e-08
2.87158e-08
-1.06136e-07
3.01923e-08
-1.17725e-07
3.16222e-08
-1.29691e-07
3.30158e-08
-1.42018e-07
3.43811e-08
-1.54696e-07
3.57247e-08
-1.67717e-07
3.70518e-08
-1.81074e-07
3.83668e-08
-1.94765e-07
3.9673e-08
-2.08787e-07
4.09729e-08
-2.2314e-07
4.22685e-08
-2.37825e-07
4.3561e-08
-2.52843e-07
4.48511e-08
-2.68196e-07
4.61393e-08
-2.83887e-07
4.74256e-08
-2.99918e-07
4.87098e-08
-3.16291e-07
4.99917e-08
-3.33008e-07
5.1271e-08
-3.50072e-07
5.25474e-08
-3.67486e-07
5.38206e-08
-3.8525e-07
5.50902e-08
-4.03368e-07
5.63561e-08
-4.2184e-07
5.76178e-08
-4.40669e-07
5.88751e-08
-4.59858e-07
6.01276e-08
-4.79406e-07
6.13752e-08
-4.99316e-07
6.26174e-08
-5.19589e-07
6.38542e-08
-5.40225e-07
6.50852e-08
-5.61225e-07
6.63101e-08
-5.82589e-07
6.75285e-08
-6.04319e-07
6.87399e-08
-6.26412e-07
6.99434e-08
-6.4887e-07
7.11383e-08
-6.71691e-07
7.23235e-08
-6.94874e-07
7.34979e-08
-7.18417e-07
7.46603e-08
-7.42318e-07
7.58092e-08
-7.66575e-07
7.69431e-08
-7.91185e-07
7.806e-08
-8.16145e-07
7.9158e-08
-8.41453e-07
8.02349e-08
-8.67105e-07
8.12886e-08
-8.93096e-07
8.23166e-08
-9.19423e-07
8.33168e-08
-9.46082e-07
8.42869e-08
-9.73066e-07
8.52255e-08
-1.00037e-06
8.61319e-08
-1.02799e-06
8.70064e-08
-1.05591e-06
8.785e-08
-1.08412e-06
8.86655e-08
-1.11259e-06
8.94576e-08
-1.14126e-06
9.02241e-08
-1.17012e-06
9.09415e-08
-1.19919e-06
9.16009e-08
-1.22846e-06
9.22152e-08
-1.25791e-06
9.27867e-08
-1.28751e-06
9.33116e-08
-1.31725e-06
9.37847e-08
-1.34711e-06
9.42009e-08
-1.37706e-06
9.45556e-08
-1.40708e-06
9.48446e-08
-1.43715e-06
9.50644e-08
-1.46724e-06
9.52117e-08
-1.49733e-06
9.52836e-08
-1.52739e-06
9.52774e-08
-1.5574e-06
9.51906e-08
-1.58732e-06
9.50204e-08
-1.61714e-06
9.47642e-08
-1.64681e-06
9.44192e-08
-1.67632e-06
9.39826e-08
-1.70562e-06
9.34513e-08
-1.73468e-06
9.28213e-08
-1.76347e-06
9.20883e-08
-1.79196e-06
9.1247e-08
-1.8201e-06
9.02913e-08
-1.84784e-06
8.92137e-08
-1.87516e-06
8.80055e-08
-1.90199e-06
8.66567e-08
-1.92829e-06
8.51556e-08
-1.95401e-06
8.3489e-08
-1.97907e-06
8.16422e-08
-2.00343e-06
7.95983e-08
-2.02699e-06
7.73387e-08
-2.04969e-06
7.4843e-08
-2.07144e-06
7.20901e-08
-2.09215e-06
6.90593e-08
-2.11173e-06
6.57301e-08
-2.13006e-06
6.20824e-08
-2.14704e-06
5.80978e-08
-2.16255e-06
5.37602e-08
-2.17648e-06
4.90575e-08
-2.1887e-06
4.39817e-08
-2.19909e-06
3.85286e-08
-2.20753e-06
3.26974e-08
-2.21391e-06
2.64911e-08
-2.21809e-06
1.99156e-08
-2.21997e-06
1.29759e-08
-2.21943e-06
5.67744e-09
-2.21638e-06
-1.96031e-09
-2.21075e-06
-9.88189e-09
-2.20246e-06
-1.8039e-08
-2.19144e-06
-2.64171e-08
-2.17764e-06
-3.50036e-08
-2.16099e-06
-4.37831e-08
-2.14146e-06
-5.27356e-08
-2.11899e-06
-6.18364e-08
-2.09357e-06
-7.1056e-08
-2.06516e-06
-8.03618e-08
-2.03377e-06
-8.97164e-08
-1.99941e-06
-9.90765e-08
-1.9621e-06
-1.08392e-07
-1.92188e-06
-1.17609e-07
-1.87882e-06
-1.26671e-07
-1.83299e-06
-1.35517e-07
-1.78451e-06
-1.44084e-07
-1.73349e-06
-1.52304e-07
-1.68009e-06
-1.60111e-07
-1.62447e-06
-1.67432e-07
-1.56682e-06
-1.74199e-07
-1.50736e-06
-1.80342e-07
-1.44633e-06
-1.85795e-07
-1.38397e-06
-1.90498e-07
-1.32055e-06
-1.94395e-07
-1.25637e-06
-1.97433e-07
-1.19172e-06
-1.99567e-07
-1.12691e-06
-2.0076e-07
-1.06225e-06
-2.00991e-07
-9.9806e-07
-2.00243e-07
-9.34655e-07
-1.98503e-07
-8.7235e-07
-1.95775e-07
-8.11447e-07
-1.92084e-07
-7.52238e-07
-1.8746e-07
-6.94997e-07
-1.81927e-07
-6.39985e-07
-1.75535e-07
-5.87441e-07
-1.68349e-07
-5.37569e-07
-1.60444e-07
-4.90552e-07
-1.51888e-07
-4.46548e-07
-1.42761e-07
-4.05678e-07
-1.33157e-07
-3.68029e-07
-1.23184e-07
-3.33655e-07
-1.12942e-07
-3.02574e-07
-1.02532e-07
-2.74774e-07
-9.20622e-08
-2.50201e-07
-8.16438e-08
-2.2877e-07
-7.13918e-08
-2.10363e-07
-6.14152e-08
-1.94824e-07
-5.18163e-08
-1.81972e-07
-4.26938e-08
-1.71592e-07
-3.41437e-08
-1.63446e-07
-2.62541e-08
-1.57262e-07
-1.91029e-08
-1.52755e-07
-1.27642e-08
-1.49606e-07
-7.30372e-09
-1.47475e-07
-2.78914e-09
-1.4598e-07
7.12623e-10
-1.44705e-07
3.08694e-09
-1.43163e-07
4.10479e-09
-1.40753e-07
3.49019e-09
-1.36752e-07
2.72241e-10
-1.30207e-07
-5.8666e-09
-1.20207e-07
-1.96799e-08
-3.43046e-08
-1.05742e-07
2.17879e-10
-8.63501e-09
-1.00507e-09
-8.12118e-09
-3.3921e-09
-5.11953e-09
-6.77047e-09
-1.43612e-09
-1.09776e-08
2.44794e-09
-1.58697e-08
6.3274e-09
-2.13626e-08
1.00978e-08
-2.74171e-08
1.37082e-08
-3.40096e-08
1.71277e-08
-4.11252e-08
2.03388e-08
-4.87529e-08
2.33357e-08
-5.68804e-08
2.6123e-08
-6.54897e-08
2.87129e-08
-7.45587e-08
3.11233e-08
-8.40632e-08
3.33743e-08
-9.39786e-08
3.54874e-08
-1.04281e-07
3.74837e-08
-1.14947e-07
3.93828e-08
-1.25958e-07
4.12027e-08
-1.37295e-07
4.2959e-08
-1.48945e-07
4.46652e-08
-1.60899e-07
4.63328e-08
-1.73147e-07
4.79712e-08
-1.85685e-07
4.95884e-08
-1.9851e-07
5.11909e-08
-2.11621e-07
5.27836e-08
-2.25019e-07
5.43707e-08
-2.38706e-07
5.5955e-08
-2.52683e-07
5.75384e-08
-2.66953e-07
5.91223e-08
-2.81521e-07
6.07073e-08
-2.96389e-07
6.22939e-08
-3.11561e-07
6.38818e-08
-3.2704e-07
6.54709e-08
-3.4283e-07
6.70608e-08
-3.58934e-07
6.86512e-08
-3.75355e-07
7.02415e-08
-3.92096e-07
7.18314e-08
-4.0916e-07
7.34203e-08
-4.2655e-07
7.50078e-08
-4.44268e-07
7.65935e-08
-4.62317e-07
7.81767e-08
-4.80698e-07
7.97571e-08
-4.99415e-07
8.13343e-08
-5.18469e-07
8.29078e-08
-5.37861e-07
8.44771e-08
-5.57593e-07
8.60418e-08
-5.77665e-07
8.7601e-08
-5.98079e-07
8.91539e-08
-6.18836e-07
9.06995e-08
-6.39935e-07
9.22366e-08
-6.61375e-07
9.37639e-08
-6.83158e-07
9.52798e-08
-7.0528e-07
9.67828e-08
-7.27742e-07
9.8271e-08
-7.50541e-07
9.97423e-08
-7.73675e-07
1.01195e-07
-7.97142e-07
1.02626e-07
-8.2094e-07
1.04032e-07
-8.45063e-07
1.05413e-07
-8.6951e-07
1.06763e-07
-8.94274e-07
1.08081e-07
-9.19349e-07
1.09364e-07
-9.44731e-07
1.10608e-07
-9.70409e-07
1.11811e-07
-9.96373e-07
1.12972e-07
-1.02261e-06
1.14089e-07
-1.04911e-06
1.15161e-07
-1.07584e-06
1.16188e-07
-1.10278e-06
1.17166e-07
-1.12992e-06
1.18083e-07
-1.15726e-06
1.18938e-07
-1.18477e-06
1.19731e-07
-1.21245e-06
1.20463e-07
-1.24027e-06
1.21127e-07
-1.2682e-06
1.21718e-07
-1.29623e-06
1.22232e-07
-1.32434e-06
1.22663e-07
-1.3525e-06
1.23005e-07
-1.38069e-06
1.23256e-07
-1.40889e-06
1.23411e-07
-1.43708e-06
1.23465e-07
-1.46522e-06
1.23417e-07
-1.49329e-06
1.23261e-07
-1.52126e-06
1.22996e-07
-1.54911e-06
1.22616e-07
-1.57681e-06
1.22119e-07
-1.60433e-06
1.21501e-07
-1.63164e-06
1.20758e-07
-1.6587e-06
1.19883e-07
-1.68548e-06
1.18871e-07
-1.71195e-06
1.17716e-07
-1.73807e-06
1.16409e-07
-1.7638e-06
1.1494e-07
-1.78909e-06
1.13297e-07
-1.8139e-06
1.11469e-07
-1.83819e-06
1.09438e-07
-1.86189e-06
1.07189e-07
-1.88495e-06
1.04701e-07
-1.9073e-06
1.01952e-07
-1.92888e-06
9.8917e-08
-1.94961e-06
9.55699e-08
-1.9694e-06
9.18832e-08
-1.98817e-06
8.78294e-08
-2.00582e-06
8.33812e-08
-2.02225e-06
7.85124e-08
-2.03735e-06
7.31986e-08
-2.05101e-06
6.74192e-08
-2.06311e-06
6.11586e-08
-2.07353e-06