/*--------------------------------*- C++ -*----------------------------------*\
| =========                 |                                                 |
| \\      /  F ield         | OpenFOAM: The Open Source CFD Toolbox           |
|  \\    /   O peration     | Version:  1.4.2                                 |
|   \\  /    A nd           | Web:      http://www.openfoam.org               |
|    \\/     M anipulation  |                                                 |
\*---------------------------------------------------------------------------*/
FoamFile
{
    version     2.0;
    format      ascii;
    class       volVectorField;
    object      U;
    location    "750";
}
// * * * * * * * * * * * * * * * * * * * * * * * * * * * * * * * * * * * * * //

dimensions      [0 1 -1 0 0 0 0];

internalField   nonuniform List<vector> 
12225
(
(9.77631 0.0380805 0)
(9.58165 0.0388038 0)
(9.36739 0.0370215 0)
(9.16175 0.0361563 0)
(8.97093 0.0352102 0)
(8.79279 0.0340377 0)
(8.62613 0.0327671 0)
(8.47065 0.031462 0)
(8.32603 0.0301363 0)
(8.1918 0.0287949 0)
(8.0675 0.0274415 0)
(7.9527 0.0260761 0)
(7.84703 0.0246913 0)
(7.7502 0.0232672 0)
(7.66211 0.0217572 0)
(7.58296 0.0200406 0)
(7.51445 0.0178553 0)
(7.45 0.00469497 0)
(10.004 0.0585745 0)
(10.0077 0.0555245 0)
(9.98308 0.0518566 0)
(9.95112 0.0514231 0)
(9.91832 0.0511409 0)
(9.88422 0.0504777 0)
(9.8488 0.0496377 0)
(9.81266 0.0487114 0)
(9.77627 0.047698 0)
(9.73997 0.0465886 0)
(9.70406 0.0453764 0)
(9.66885 0.0440468 0)
(9.63466 0.0425671 0)
(9.60187 0.0408698 0)
(9.57098 0.0388108 0)
(9.54278 0.0360503 0)
(9.51881 0.0317471 0)
(9.49712 0.0220568 0)
(10.0174 0.0524278 0)
(10.037 0.0526685 0)
(10.0383 0.0512377 0)
(10.0338 0.0521792 0)
(10.0285 0.0527982 0)
(10.0223 0.0527779 0)
(10.015 0.0524499 0)
(10.007 0.0519575 0)
(9.99851 0.0513183 0)
(9.98981 0.0505295 0)
(9.98097 0.049583 0)
(9.97215 0.0484535 0)
(9.9635 0.0470849 0)
(9.95523 0.0453672 0)
(9.94761 0.0430817 0)
(9.94093 0.0397719 0)
(9.93549 0.0344093 0)
(9.92796 0.024452 0)
(10.0158 0.0449535 0)
(10.0376 0.0501268 0)
(10.046 0.0506544 0)
(10.0489 0.0521593 0)
(10.051 0.0531267 0)
(10.0522 0.0534123 0)
(10.0526 0.0533318 0)
(10.0524 0.0530317 0)
(10.0519 0.0525412 0)
(10.0513 0.0518633 0)
(10.0506 0.0509882 0)
(10.0499 0.0498835 0)
(10.0493 0.0484806 0)
(10.049 0.0466523 0)
(10.0491 0.0441692 0)
(10.0496 0.0406218 0)
(10.0502 0.0353426 0)
(10.0487 0.0274218 0)
(10.0125 0.0370821 0)
(10.0331 0.0461482 0)
(10.0446 0.048574 0)
(10.0509 0.0506831 0)
(10.0561 0.0519804 0)
(10.0603 0.0525043 0)
(10.0638 0.0525825 0)
(10.0667 0.052379 0)
(10.0694 0.0519398 0)
(10.0718 0.0512747 0)
(10.0742 0.0503748 0)
(10.0765 0.0492054 0)
(10.079 0.0476955 0)
(10.0815 0.045721 0)
(10.0842 0.0430797 0)
(10.0869 0.0394641 0)
(10.0893 0.0345044 0)
(10.09 0.0279782 0)
(10.0094 0.0302344 0)
(10.0273 0.0413826 0)
(10.0399 0.0454303 0)
(10.0483 0.0482125 0)
(10.0552 0.0499016 0)
(10.0612 0.0507005 0)
(10.0663 0.0509547 0)
(10.0709 0.0508492 0)
(10.0752 0.0504537 0)
(10.0792 0.0497924 0)
(10.0831 0.0488622 0)
(10.0869 0.0476317 0)
(10.0906 0.0460355 0)
(10.0944 0.0439657 0)
(10.0981 0.0412644 0)
(10.1016 0.0377287 0)
(10.1046 0.0331927 0)
(10.1064 0.027737 0)
(10.0067 0.0244781 0)
(10.0216 0.0363831 0)
(10.0341 0.0415835 0)
(10.0434 0.0449322 0)
(10.0514 0.0470114 0)
(10.0585 0.0481072 0)
(10.0648 0.0485624 0)
(10.0705 0.0485771 0)
(10.0757 0.0482426 0)
(10.0807 0.0475977 0)
(10.0854 0.0466488 0)
(10.0901 0.0453734 0)
(10.0946 0.0437193 0)
(10.0989 0.0416041 0)
(10.1031 0.0389189 0)
(10.107 0.0355495 0)
(10.1103 0.0314543 0)
(10.1125 0.0268184 0)
(10.005 0.0203586 0)
(10.0173 0.0322068 0)
(10.0291 0.0380079 0)
(10.0386 0.0417102 0)
(10.047 0.0440502 0)
(10.0545 0.0453588 0)
(10.0614 0.045972 0)
(10.0677 0.0460929 0)
(10.0735 0.0458218 0)
(10.079 0.0452063 0)
(10.0843 0.0442609 0)
(10.0894 0.0429727 0)
(10.0942 0.0413044 0)
(10.0989 0.0391979 0)
(10.1033 0.0365839 0)
(10.1073 0.0334064 0)
(10.1107 0.0296838 0)
(10.1133 0.0256174 0)
(10.0039 0.0172049 0)
(10.0141 0.0286226 0)
(10.0249 0.034717 0)
(10.0342 0.0386454 0)
(10.0426 0.0411652 0)
(10.0504 0.0426304 0)
(10.0576 0.0433655 0)
(10.0642 0.0435714 0)
(10.0704 0.0433542 0)
(10.0763 0.0427686 0)
(10.0819 0.0418363 0)
(10.0872 0.0405533 0)
(10.0923 0.0388954 0)
(10.0972 0.0368254 0)
(10.1017 0.0343048 0)
(10.1058 0.0313164 0)
(10.1093 0.0279106 0)
(10.1121 0.0242822 0)
(10.0029 0.0143502 0)
(10.0112 0.0249791 0)
(10.0208 0.0311316 0)
(10.0297 0.0351652 0)
(10.0379 0.0378003 0)
(10.0457 0.0393855 0)
(10.0529 0.0402221 0)
(10.0597 0.040504 0)
(10.0661 0.0403394 0)
(10.0722 0.0397883 0)
(10.078 0.0388793 0)
(10.0835 0.0376181 0)
(10.0888 0.0359948 0)
(10.0937 0.0339926 0)
(10.0983 0.0315996 0)
(10.1024 0.0288279 0)
(10.106 0.0257436 0)
(10.109 0.0225253 0)
(10.0021 0.0117929 0)
(10.0088 0.0213611 0)
(10.0171 0.0273354 0)
(10.0253 0.0313283 0)
(10.0331 0.0339869 0)
(10.0406 0.0356328 0)
(10.0477 0.036533 0)
(10.0545 0.036868 0)
(10.061 0.0367453 0)
(10.0671 0.0362278 0)
(10.073 0.0353502 0)
(10.0786 0.0341278 0)
(10.0839 0.0325646 0)
(10.0888 0.0306617 0)
(10.0934 0.0284286 0)
(10.0975 0.0258961 0)
(10.1011 0.0231346 0)
(10.1043 0.0202997 0)
(10.0015 0.00952907 0)
(10.0068 0.017845 0)
(10.0139 0.0234096 0)
(10.0212 0.0272096 0)
(10.0284 0.0297831 0)
(10.0355 0.0314122 0)
(10.0424 0.0323225 0)
(10.049 0.0326759 0)
(10.0553 0.0325748 0)
(10.0614 0.0320832 0)
(10.0672 0.0312405 0)
(10.0727 0.0300706 0)
(10.0779 0.0285893 0)
(10.0827 0.0268125 0)
(10.0872 0.0247638 0)
(10.0913 0.0224837 0)
(10.0949 0.0200394 0)
(10.0981 0.0175603 0)
(10.0011 0.00753576 0)
(10.0052 0.0144861 0)
(10.0111 0.0194277 0)
(10.0176 0.0228824 0)
(10.0242 0.0252546 0)
(10.0307 0.0267779 0)
(10.0372 0.0276348 0)
(10.0435 0.0279633 0)
(10.0495 0.027857 0)
(10.0554 0.0273783 0)
(10.0609 0.0265695 0)
(10.0662 0.0254611 0)
(10.0712 0.0240779 0)
(10.0759 0.0224453 0)
(10.0802 0.0205951 0)
(10.0842 0.01857 0)
(10.0877 0.0164292 0)
(10.091 0.0142773 0)
(10.0009 0.00576962 0)
(10.0041 0.0113068 0)
(10.009 0.0154456 0)
(10.0146 0.018407 0)
(10.0205 0.0204602 0)
(10.0265 0.0217843 0)
(10.0324 0.022519 0)
(10.0383 0.022775 0)
(10.044 0.0226334 0)
(10.0495 0.0221519 0)
(10.0548 0.0213732 0)
(10.0598 0.020331 0)
(10.0645 0.0190553 0)
(10.0689 0.0175763 0)
(10.0731 0.0159279 0)
(10.0768 0.0141505 0)
(10.0803 0.0122933 0)
(10.0834 0.0104389 0)
(10.0007 0.00417645 0)
(10.0032 0.00829465 0)
(10.0073 0.0114903 0)
(10.0121 0.0138209 0)
(10.0174 0.0154405 0)
(10.0228 0.0164718 0)
(10.0282 0.0170138 0)
(10.0337 0.0171485 0)
(10.039 0.0169407 0)
(10.0441 0.0164398 0)
(10.049 0.0156852 0)
(10.0537 0.0147102 0)
(10.0581 0.0135456 0)
(10.0623 0.0122216 0)
(10.0662 0.0107702 0)
(10.0697 0.00922625 0)
(10.073 0.00762914 0)
(10.0761 0.00604293 0)
(10.0005 0.00269676 0)
(10.0026 0.00540084 0)
(10.0061 0.00754744 0)
(10.0103 0.0091242 0)
(10.0149 0.0102018 0)
(10.0198 0.0108502 0)
(10.0248 0.0111299 0)
(10.0298 0.0110945 0)
(10.0347 0.010789 0)
(10.0395 0.010251 0)
(10.044 0.00951256 0)
(10.0484 0.00860238 0)
(10.0525 0.00754751 0)
(10.0564 0.00637462 0)
(10.0601 0.00511059 0)
(10.0634 0.00378325 0)
(10.0665 0.00242273 0)
(10.0695 0.001078 0)
(10.0005 0.00126516 0)
(10.0023 0.00254046 0)
(10.0053 0.00355066 0)
(10.009 0.00426678 0)
(10.0133 0.00470424 0)
(10.0177 0.00488705 0)
(10.0223 0.00483994 0)
(10.0269 0.00458757 0)
(10.0315 0.00415347 0)
(10.0359 0.00355959 0)
(10.0402 0.00282651 0)
(10.0442 0.00197431 0)
(10.0481 0.00102284 0)
(10.0518 -8.03281e-06 0)
(10.0552 -0.00109848 0)
(10.0584 -0.00222839 0)
(10.0613 -0.00337583 0)
(10.0642 -0.00450347 0)
(10.0004 -0.000118685 0)
(10.0021 -0.000249698 0)
(10.005 -0.000388261 0)
(10.0085 -0.000560991 0)
(10.0125 -0.000793897 0)
(10.0168 -0.00110407 0)
(10.0211 -0.00150054 0)
(10.0255 -0.00198666 0)
(10.0298 -0.00256146 0)
(10.034 -0.00322044 0)
(10.0381 -0.00395628 0)
(10.0419 -0.00475973 0)
(10.0456 -0.00562013 0)
(10.0491 -0.00652583 0)
(10.0523 -0.00746462 0)
(10.0554 -0.00842373 0)
(10.0582 -0.00938846 0)
(10.061 -0.0103313 0)
(10.0004 -0.00143302 0)
(10.0022 -0.00288438 0)
(10.0052 -0.00408225 0)
(10.0088 -0.00506062 0)
(10.0128 -0.00589254 0)
(10.0171 -0.006637 0)
(10.0214 -0.007336 0)
(10.0257 -0.00802005 0)
(10.0299 -0.00870999 0)
(10.034 -0.00941828 0)
(10.0379 -0.0101509 0)
(10.0417 -0.0109089 0)
(10.0452 -0.0116904 0)
(10.0486 -0.012491 0)
(10.0518 -0.0133049 0)
(10.0547 -0.0141253 0)
(10.0575 -0.0149426 0)
(10.0602 -0.0157368 0)
(10.0005 -0.00273787 0)
(10.0026 -0.00544203 0)
(10.0059 -0.00757964 0)
(10.0098 -0.00923396 0)
(10.014 -0.0105492 0)
(10.0184 -0.0116311 0)
(10.0228 -0.0125547 0)
(10.0271 -0.0133771 0)
(10.0314 -0.0141392 0)
(10.0354 -0.0148683 0)
(10.0393 -0.0155814 0)
(10.043 -0.0162885 0)
(10.0465 -0.0169943 0)
(10.0499 -0.0177005 0)
(10.053 -0.0184063 0)
(10.0559 -0.0191095 0)
(10.0586 -0.0198047 0)
(10.0612 -0.0204776 0)
(10.0007 -0.00415021 0)
(10.0032 -0.00810296 0)
(10.0071 -0.011068 0)
(10.0115 -0.0132651 0)
(10.0161 -0.0149454 0)
(10.0207 -0.0162645 0)
(10.0253 -0.017331 0)
(10.0297 -0.0182278 0)
(10.034 -0.0190145 0)
(10.0381 -0.0197304 0)
(10.042 -0.0204013 0)
(10.0457 -0.0210436 0)
(10.0491 -0.0216675 0)
(10.0524 -0.0222789 0)
(10.0555 -0.0228812 0)
(10.0583 -0.0234754 0)
(10.061 -0.0240599 0)
(10.0635 -0.0246253 0)
(10.0009 -0.00579621 0)
(10.0043 -0.0110159 0)
(10.009 -0.0146659 0)
(10.014 -0.0172544 0)
(10.019 -0.0191734 0)
(10.0239 -0.0206238 0)
(10.0287 -0.0217467 0)
(10.0333 -0.0226509 0)
(10.0376 -0.0234111 0)
(10.0417 -0.0240759 0)
(10.0455 -0.0246772 0)
(10.0492 -0.0252357 0)
(10.0525 -0.0257651 0)
(10.0557 -0.0262742 0)
(10.0587 -0.0267691 0)
(10.0614 -0.0272537 0)
(10.0639 -0.0277297 0)
(10.0664 -0.0281926 0)
(10.0014 -0.00782874 0)
(10.0059 -0.0143017 0)
(10.0117 -0.0184255 0)
(10.0174 -0.0212251 0)
(10.0228 -0.0232436 0)
(10.028 -0.0247106 0)
(10.0329 -0.0257988 0)
(10.0374 -0.0266408 0)
(10.0417 -0.0273226 0)
(10.0457 -0.0278979 0)
(10.0494 -0.0284017 0)
(10.0529 -0.028857 0)
(10.0561 -0.0292787 0)
(10.0591 -0.0296769 0)
(10.0618 -0.0300589 0)
(10.0643 -0.0304306 0)
(10.0667 -0.0307967 0)
(10.0689 -0.0311586 0)
(10.0021 -0.0104359 0)
(10.0083 -0.0180368 0)
(10.0153 -0.0223208 0)
(10.0216 -0.025117 0)
(10.0272 -0.0270813 0)
(10.0325 -0.0284445 0)
(10.0373 -0.0294085 0)
(10.0417 -0.0301249 0)
(10.0457 -0.0306836 0)
(10.0494 -0.0311387 0)
(10.0528 -0.0315243 0)
(10.056 -0.0318628 0)
(10.0589 -0.0321684 0)
(10.0615 -0.0324504 0)
(10.0639 -0.0327159 0)
(10.0661 -0.0329716 0)
(10.0681 -0.0332252 0)
(10.07 -0.0334849 0)
(10.0033 -0.0138397 0)
(10.0117 -0.0222132 0)
(10.0198 -0.026225 0)
(10.0263 -0.0287815 0)
(10.0318 -0.030539 0)
(10.0368 -0.0316892 0)
(10.0412 -0.032455 0)
(10.0451 -0.0329964 0)
(10.0486 -0.0334004 0)
(10.0518 -0.0337161 0)
(10.0547 -0.0339743 0)
(10.0573 -0.0341939 0)
(10.0596 -0.0343863 0)
(10.0618 -0.0345579 0)
(10.0637 -0.0347134 0)
(10.0655 -0.0348575 0)
(10.067 -0.0349996 0)
(10.0684 -0.035156 0)
(10.005 -0.0182964 0)
(10.0159 -0.0266608 0)
(10.0247 -0.0298686 0)
(10.0307 -0.031965 0)
(10.0355 -0.0333836 0)
(10.0397 -0.034238 0)
(10.0432 -0.034762 0)
(10.0462 -0.0351114 0)
(10.0489 -0.0353584 0)
(10.0512 -0.0355402 0)
(10.0532 -0.0356798 0)
(10.055 -0.0357913 0)
(10.0566 -0.0358818 0)
(10.058 -0.0359539 0)
(10.0592 -0.0360076 0)
(10.0603 -0.0360427 0)
(10.0611 -0.0360657 0)
(10.0618 -0.0360979 0)
(10.0075 -0.0241258 0)
(10.0207 -0.0310246 0)
(10.0287 -0.0328159 0)
(10.0331 -0.0343168 0)
(10.0363 -0.0353619 0)
(10.0389 -0.035915 0)
(10.0409 -0.0362068 0)
(10.0424 -0.0363804 0)
(10.0435 -0.0364884 0)
(10.0443 -0.0365532 0)
(10.0449 -0.0365897 0)
(10.0453 -0.0366066 0)
(10.0455 -0.0366075 0)
(10.0456 -0.0365912 0)
(10.0455 -0.0365523 0)
(10.0453 -0.0364819 0)
(10.0449 -0.0363749 0)
(10.0443 -0.0362402 0)
(10.0101 -0.0307462 0)
(10.0238 -0.0344083 0)
(10.0287 -0.0343625 0)
(10.0292 -0.0352358 0)
(10.0289 -0.035936 0)
(10.0281 -0.0362216 0)
(10.0266 -0.036304 0)
(10.0246 -0.0363101 0)
(10.0224 -0.0362758 0)
(10.0199 -0.0362144 0)
(10.0173 -0.0361359 0)
(10.0145 -0.0360464 0)
(10.0116 -0.0359474 0)
(10.0087 -0.0358353 0)
(10.0057 -0.0356994 0)
(10.0026 -0.0355178 0)
(9.9995 -0.0352561 0)
(9.99606 -0.0348505 0)
(10.0062 -0.0364084 0)
(10.0142 -0.0379475 0)
(10.0067 -0.0361126 0)
(9.99424 -0.0359752 0)
(9.98161 -0.0359977 0)
(9.96878 -0.0357904 0)
(9.95556 -0.035494 0)
(9.94212 -0.0351949 0)
(9.92867 -0.0349055 0)
(9.91528 -0.0346232 0)
(9.902 -0.0343473 0)
(9.88888 -0.0340772 0)
(9.87593 -0.0338105 0)
(9.86319 -0.0335416 0)
(9.85068 -0.0332586 0)
(9.83844 -0.0329315 0)
(9.82649 -0.0324918 0)
(9.81429 -0.0315534 0)
(9.89292 -0.0248311 0)
(9.80337 -0.0270761 0)
(9.69906 -0.0264881 0)
(9.59608 -0.0263387 0)
(9.49956 -0.026146 0)
(9.40857 -0.0258 0)
(9.32225 -0.0253931 0)
(9.24037 -0.0249793 0)
(9.16274 -0.024571 0)
(9.08916 -0.0241697 0)
(9.0194 -0.0237761 0)
(8.95324 -0.02339 0)
(8.89049 -0.0230107 0)
(8.83097 -0.0226358 0)
(8.77453 -0.0222603 0)
(8.72104 -0.0218682 0)
(8.67059 -0.0214125 0)
(8.62165 -0.0205355 0)
(0.00131301 -0.00253219 0)
(0.00419291 -0.00453072 0)
(0.00836703 -0.0054219 0)
(0.0124686 -0.00530739 0)
(0.0159115 -0.00450594 0)
(0.0184333 -0.00334949 0)
(0.0199247 -0.00207305 -4.21555e-19)
(0.0203606 -0.000810713 4.09515e-19)
(0.0197401 0.00036282 0)
(0.0181757 0.00139552 3.90061e-19)
(0.0157601 0.00229045 0)
(0.0125953 0.00308158 0)
(0.00876547 0.00381538 0)
(0.00434386 0.00451946 -3.99205e-19)
(-0.000718243 0.00519365 0)
(-0.00631439 0.00580863 0)
(-0.0124265 0.00638112 3.75925e-19)
(-0.0190571 0.00693471 0)
(-0.0261959 0.00747917 0)
(-0.0338409 0.00801777 0)
(-0.041992 0.00855128 -3.17649e-19)
(-0.0506503 0.00907951 0)
(-0.0598163 0.00960194 -2.8983e-19)
(-0.0694904 0.010118 0)
(-0.0796726 0.0106273 0)
(-0.0903627 0.0111293 -2.51276e-19)
(-0.10156 0.0116239 0)
(-0.113265 0.0121105 2.28133e-19)
(-0.125477 0.0125887 0)
(-0.138196 0.013058 -2.07153e-19)
(-0.151422 0.0135177 0)
(-0.165153 0.0139672 0)
(-0.179389 0.014406 0)
(-0.194128 0.0148338 0)
(-0.209366 0.0152504 0)
(-0.225101 0.0156557 1.56393e-19)
(-0.241329 0.0160498 0)
(-0.258046 0.0164328 -2.86052e-19)
(-0.275247 0.0168049 0)
(-0.292929 0.0171662 2.6229e-19)
(-0.311088 0.0175169 0)
(-0.329721 0.0178573 0)
(-0.348824 0.0181873 -2.31487e-19)
(-0.368394 0.0185071 0)
(-0.388427 0.018817 -2.13735e-19)
(-0.408918 0.0191169 2.05592e-19)
(-0.429864 0.0194072 0)
(-0.451261 0.0196877 1.90619e-19)
(-0.473105 0.0199582 1.83735e-19)
(-0.495392 0.0202184 0)
(-0.518118 0.0204678 0)
(-0.541278 0.0207056 0)
(-0.564867 0.0209311 0)
(-0.588879 0.021143 0)
(-0.613308 0.0213395 -1.49407e-19)
(-0.638148 0.0215186 0)
(-0.663391 0.0216771 1.40164e-19)
(-0.689031 0.0218112 0)
(-0.71506 0.0219158 0)
(-0.741467 0.021985 -1.27929e-19)
(-0.768239 0.0220117 0)
(-0.795359 0.0219884 1.20705e-19)
(-0.822809 0.0219085 0)
(-0.850567 0.021769 0)
(-0.878605 0.0215744 0)
(-0.906885 0.0213413 -1.08037e-19)
(-0.935374 0.0211073 0)
(-0.964099 0.0209618 0)
(-0.993162 0.0211204 -9.95164e-20)
(-1.02264 0.0220117 0)
(-1.05249 0.0226944 -9.43826e-20)
(-1.08267 0.0226946 0)
(-1.11305 0.0226947 0)
(-1.14365 0.02271 0)
(-1.1745 0.0227265 8.6109e-20)
(-1.20558 0.0227363 0)
(-1.23688 0.0227354 0)
(-1.26839 0.0227218 8.0715e-20)
(-1.30009 0.0226941 7.90494e-20)
(-1.33196 0.0226515 0)
(-1.36398 0.0225935 7.58969e-20)
(-1.39612 0.0225196 0)
(-1.42837 0.0224297 1.45925e-19)
(-1.4607 0.0223234 0)
(-1.49309 0.0222006 1.40446e-19)
(-1.52551 0.0220609 0)
(-1.55794 0.0219039 -1.35316e-19)
(-1.59035 0.0217295 0)
(-1.62271 0.0215374 0)
(-1.655 0.0213274 0)
(-1.68718 0.0210989 1.25948e-19)
(-1.71922 0.0208513 0)
(-1.7511 0.0205835 -1.21638e-19)
(-1.78277 0.0202943 0)
(-1.8142 0.0199822 1.17532e-19)
(-1.84535 0.0196451 1.15547e-19)
(-1.87617 0.0192809 1.136e-19)
(-1.90661 0.0188873 0)
(-1.93663 0.0184617 0)
(-1.96616 0.0180016 0)
(-1.99514 0.0175033 0)
(-2.02349 0.0169629 0)
(-2.05114 0.0163763 0)
(-2.078 0.0157396 0)
(-2.10398 0.0150497 0)
(-2.12896 0.0143036 -9.72487e-20)
(-2.15286 0.013498 -9.54948e-20)
(-2.17554 0.0126299 0)
(-2.19689 0.0116974 0)
(-2.21678 0.0107 0)
(-2.23509 0.00963805 -8.84278e-20)
(-2.25168 0.00851158 0)
(-2.26643 0.00732093 0)
(-2.2792 0.00606719 0)
(-2.28987 0.00475096 0)
(-2.29831 0.0033699 7.91559e-20)
(-2.30438 0.00192329 0)
(-2.30794 0.00042494 0)
(-2.30889 -0.00110695 -7.30516e-20)
(-2.30714 -0.00267017 7.08788e-20)
(-2.3026 -0.00426771 0)
(-2.29519 -0.00589799 6.63424e-20)
(-2.28482 -0.00755914 0)
(-2.27144 -0.00924762 -6.15215e-20)
(-2.25495 -0.0109582 0)
(-2.23531 -0.0126852 0)
(-2.21247 -0.014424 0)
(-2.1864 -0.0161689 0)
(-2.15708 -0.0179121 0)
(-2.1245 -0.0196441 9.00652e-20)
(-2.08868 -0.0213556 8.39127e-20)
(-2.04966 -0.0230378 0)
(-2.00749 -0.0246807 0)
(-1.96224 -0.0262727 0)
(-1.91402 -0.0278016 -5.73078e-20)
(-1.86296 -0.0292555 0)
(-1.8092 -0.0306226 0)
(-1.75292 -0.0318909 0)
(-1.69433 -0.033048 -2.75861e-20)
(-1.63363 -0.034082 1.97127e-20)
(-1.57108 -0.0349815 0)
(-1.50695 -0.0357362 0)
(-1.44153 -0.0363358 -4.77439e-21)
(-1.37511 -0.0367715 -1.31666e-20)
(-1.30802 -0.0370371 0)
(-1.24058 -0.0371275 0)
(-1.17315 -0.0370365 3.8707e-20)
(-1.10605 -0.0367588 -4.72449e-20)
(-1.03964 -0.0362947 0)
(-0.974259 -0.0356498 0)
(-0.910239 -0.0348275 -7.24531e-20)
(-0.847916 -0.0338272 0)
(-0.787605 -0.0326556 0)
(-0.729595 -0.0313321 -9.62334e-20)
(-0.674168 -0.0298645 0)
(-0.62158 -0.0282598 -1.10763e-19)
(-0.572054 -0.0265412 0)
(-0.525797 -0.0247259 0)
(-0.482966 -0.0228291 0)
(-0.443685 -0.0208737 1.3545e-19)
(-0.40806 -0.0188813 0)
(-0.376144 -0.0168713 0)
(-0.347952 -0.0148659 0)
(-0.323465 -0.0128887 0)
(-0.302619 -0.0109602 0)
(-0.285316 -0.00909738 0)
(-0.271417 -0.00731819 1.62977e-19)
(-0.260757 -0.00563711 1.65521e-19)
(-0.253133 -0.00407552 0)
(-0.248318 -0.00263701 0)
(-0.246058 -0.00133833 0)
(-0.246087 -0.000184789 -1.73754e-19)
(-0.248112 0.000826278 0)
(-0.25184 0.00168378 3.54677e-19)
(-0.256894 0.00235409 -3.58635e-19)
(-0.262901 0.00281676 -3.63097e-19)
(-0.268889 0.00279044 3.68353e-19)
(-0.275019 0.00240204 -3.74816e-19)
(-0.275227 -5.32877e-05 3.8266e-19)
(-0.269981 -0.00327474 0)
(0.00162319 -0.00863755 0)
(0.00493661 -0.0125814 0)
(0.00770548 -0.0124816 6.34739e-19)
(0.00959991 -0.0106504 0)
(0.0105468 -0.00797143 -4.49106e-19)
(0.0105192 -0.00488411 -4.17336e-19)
(0.00950565 -0.00165495 -1.99746e-19)
(0.00750798 0.00153426 -1.93797e-19)
(0.00461726 0.00451749 0)
(0.0008503 0.00721978 -1.86127e-19)
(-0.00375297 0.00961673 0)
(-0.00910458 0.0117162 0)
(-0.015163 0.013586 3.34913e-19)
(-0.0218685 0.0152813 1.61068e-19)
(-0.0291716 0.0168289 -3.09521e-19)
(-0.0370261 0.0182516 -2.97341e-19)
(-0.0454005 0.0195846 -1.42829e-19)
(-0.0542672 0.0208533 0)
(-0.0636019 0.0220737 0)
(-0.0733842 0.0232557 0)
(-0.0835977 0.0244054 -1.21519e-19)
(-0.0942288 0.0255266 0)
(-0.105267 0.026622 3.36741e-19)
(-0.116703 0.0276933 0)
(-0.12853 0.0287419 0)
(-0.140743 0.0297689 9.97696e-20)
(-0.153339 0.0307748 0)
(-0.166315 0.0317603 -9.23243e-20)
(-0.179671 0.0327255 -1.77615e-19)
(-0.193404 0.0336702 8.55197e-20)
(-0.207517 0.0345941 0)
(-0.222008 0.0354968 0)
(-0.236879 0.036378 0)
(-0.25213 0.0372371 -1.4716e-19)
(-0.267762 0.0380741 -1.41853e-19)
(-0.283775 0.0388888 -6.84321e-20)
(-0.300169 0.0396815 0)
(-0.316943 0.0404522 1.27391e-19)
(-0.334099 0.0412013 0)
(-0.351637 0.0419289 -1.18746e-19)
(-0.369556 0.0426352 0)
(-0.387858 0.0433205 0)
(-0.406544 0.0439849 1.0718e-19)
(-0.425613 0.0446287 0)
(-0.445066 0.0452524 3.00742e-19)
(-0.464903 0.0458563 -9.7103e-20)
(-0.485123 0.0464409 0)
(-0.505725 0.0470064 -9.11176e-20)
(-0.526711 0.0475529 -8.83254e-20)
(-0.548079 0.0480805 0)
(-0.569829 0.048589 0)
(-0.59196 0.0490782 0)
(-0.614471 0.0495478 0)
(-0.637358 0.0499977 0)
(-0.660621 0.0504274 7.40334e-20)
(-0.684257 0.0508367 1.4383e-19)
(-0.708263 0.051225 -7.00945e-20)
(-0.732638 0.051592 0)
(-0.757378 0.0519371 1.32822e-19)
(-0.782481 0.0522599 -6.46428e-20)
(-0.807945 0.0525599 0)
(-0.833767 0.0528363 -6.17619e-20)
(-0.859945 0.0530881 0)
(-0.886481 0.0533145 0)
(-0.913375 0.0535153 -1.15145e-19)
(-0.940628 0.0536889 5.64473e-20)
(-0.968241 0.0538259 -1.10329e-19)
(-0.996208 0.0539073 1.08041e-19)
(-1.02449 0.0539237 5.29828e-20)
(-1.05297 0.0539066 0)
(-1.08162 0.0538894 5.06191e-20)
(-1.11053 0.0538615 0)
(-1.13975 0.0538402 0)
(-1.16921 0.0538182 0)
(-1.19891 0.0537825 4.60306e-20)
(-1.22881 0.0537244 0)
(-1.2589 0.0536383 8.8361e-20)
(-1.28917 0.0535209 -1.29861e-19)
(-1.31959 0.05337 -4.24627e-20)
(-1.35014 0.0531841 0)
(-1.3808 0.052962 -4.07525e-20)
(-1.41155 0.0527031 0)
(-1.44237 0.0524069 -7.83021e-20)
(-1.47323 0.052073 0)
(-1.50411 0.0517011 -7.52961e-20)
(-1.53498 0.0512908 1.47285e-19)
(-1.56582 0.0508418 7.24674e-20)
(-1.5966 0.0503537 0)
(-1.62729 0.0498262 0)
(-1.65786 0.0492587 0)
(-1.68827 0.0486503 -6.72659e-20)
(-1.7185 0.0479995 0)
(-1.74852 0.0473046 6.48559e-20)
(-1.77827 0.0465631 0)
(-1.80772 0.0457722 -1.87255e-19)
(-1.83684 0.0449282 -6.1428e-20)
(-1.86557 0.0440268 -6.03264e-20)
(-1.89385 0.0430635 0)
(-1.92165 0.0420331 0)
(-1.94889 0.0409298 0)
(-1.9755 0.0397468 0)
(-2.00143 0.0384764 0)
(-2.02658 0.0371107 -1.07685e-19)
(-2.05087 0.0356423 -1.05642e-19)
(-2.0742 0.0340644 0)
(-2.09648 0.0323708 5.09065e-20)
(-2.11759 0.0305556 4.98766e-20)
(-2.13743 0.0286138 0)
(-2.15588 0.0265425 9.54303e-20)
(-2.17282 0.0243412 0)
(-2.18812 0.0220109 -4.55765e-20)
(-2.20165 0.0195539 0)
(-2.21329 0.0169735 0)
(-2.22292 0.0142747 8.4876e-20)
(-2.23041 0.0114616 0)
(-2.23565 0.00853351 -4.02071e-20)
(-2.23851 0.00549068 0)
(-2.23883 0.00235508 0)
(-2.2366 -0.000841647 -3.67468e-20)
(-2.2317 -0.00408744 -3.53302e-20)
(-2.22407 -0.00737877 0)
(-2.21362 -0.0107102 3.29701e-20)
(-2.20029 -0.014075 0)
(-2.18402 -0.0174638 -3.03016e-20)
(-2.16474 -0.0208652 -5.74506e-20)
(-2.14242 -0.0242668 0)
(-2.11703 -0.027656 0)
(-2.08854 -0.0310184 0)
(-2.05695 -0.0343371 0)
(-2.02227 -0.037593 -4.18754e-20)
(-1.98453 -0.0407671 -1.17252e-19)
(-1.94378 -0.0438404 0)
(-1.90009 -0.0467926 0)
(-1.85355 -0.0496024 0)
(-1.80429 -0.0522478 2.53499e-20)
(-1.75242 -0.0547074 0)
(-1.69813 -0.0569603 0)
(-1.64159 -0.0589862 -3.18571e-20)
(-1.58301 -0.0607657 -1.33871e-20)
(-1.52262 -0.062281 -8.20797e-21)
(-1.46067 -0.0635166 0)
(-1.39745 -0.0644585 0)
(-1.33322 -0.0650946 1.90846e-21)
(-1.26831 -0.0654154 -3.35558e-21)
(-1.20301 -0.0654165 0)
(-1.13766 -0.0650966 0)
(-1.07258 -0.0644541 -1.46021e-20)
(-1.00811 -0.0634911 5.09504e-20)
(-0.94458 -0.0622164 0)
(-0.882305 -0.0606433 0)
(-0.821597 -0.0587838 2.57789e-20)
(-0.762763 -0.0566527 0)
(-0.706092 -0.0542701 5.98412e-20)
(-0.651843 -0.0516637 -3.15166e-20)
(-0.600252 -0.0488563 0)
(-0.55154 -0.0458707 3.68822e-20)
(-0.505893 -0.0427406 7.63136e-20)
(-0.463465 -0.0394989 0)
(-0.424377 -0.0361763 0)
(-0.38871 -0.0328062 -4.33073e-20)
(-0.356518 -0.029422 0)
(-0.327812 -0.0260568 9.09863e-20)
(-0.302566 -0.0227465 0)
(-0.28072 -0.0195251 0)
(-0.262169 -0.0164237 0)
(-0.246779 -0.0134692 0)
(-0.234378 -0.0106874 -5.04331e-20)
(-0.224766 -0.00810115 -5.11912e-20)
(-0.217708 -0.00573266 0)
(-0.212944 -0.00359661 0)
(-0.210189 -0.00170993 0)
(-0.209137 -7.7589e-05 5.41e-20)
(-0.209443 0.00129421 0)
(-0.210745 0.00238165 -1.11339e-19)
(-0.212594 0.00313041 1.13146e-19)
(-0.214547 0.00348557 1.1519e-19)
(-0.215597 0.00309312 1.1744e-19)
(-0.215799 0.00193419 1.20321e-19)
(-0.210528 -0.00207033 1.23012e-19)
(-0.204787 -0.00589351 0)
(0.00119035 -0.0147086 0)
(0.00289125 -0.0175206 0)
(0.00342736 -0.0150856 -4.73833e-19)
(0.00301683 -0.0109949 -3.8361e-19)
(0.00164311 -0.00620925 3.37517e-19)
(-0.000663604 -0.00112036 3.07337e-19)
(-0.00380989 0.00395582 2.11525e-23)
(-0.00768391 0.00879132 0)
(-0.012254 0.0132842 0)
(-0.0174833 0.0173868 0)
(-0.0233449 0.0210865 0)
(-0.0298144 0.0244051 0)
(-0.0368642 0.0273877 -6.27069e-19)
(-0.044457 0.0300822 0)
(-0.0525559 0.0325332 1.93036e-19)
(-0.0611282 0.0347815 1.85656e-19)
(-0.0701445 0.0368648 0)
(-0.079577 0.0388148 0)
(-0.0894013 0.0406567 0)
(-0.0995963 0.04241 0)
(-0.110145 0.0440894 1.53646e-19)
(-0.121033 0.0457063 0)
(-0.132251 0.0472695 -1.42815e-19)
(-0.14379 0.048786 0)
(-0.155645 0.0502615 0)
(-0.167812 0.0517001 0)
(-0.180289 0.0531052 -2.47829e-19)
(-0.193077 0.0544793 0)
(-0.206176 0.055824 1.15721e-19)
(-0.219588 0.0571404 -2.23669e-19)
(-0.233315 0.058429 0)
(-0.24736 0.0596902 0)
(-0.261726 0.0609239 0)
(-0.276416 0.06213 9.80261e-20)
(-0.291433 0.0633086 9.49172e-20)
(-0.306779 0.0644596 0)
(-0.322458 0.0655832 0)
(-0.338472 0.0666793 -1.72596e-19)
(-0.354823 0.0677483 -1.67336e-19)
(-0.371515 0.0687902 1.62291e-19)
(-0.388549 0.069805 0)
(-0.405929 0.0707929 0)
(-0.423657 0.0717541 0)
(-0.441735 0.0726887 0)
(-0.460166 0.073597 -1.40064e-19)
(-0.47895 0.0744794 -1.3605e-19)
(-0.498089 0.075336 1.32275e-19)
(-0.517586 0.0761669 0)
(-0.53744 0.0769721 0)
(-0.557654 0.0777512 0)
(-0.578228 0.0785038 0)
(-0.599163 0.0792292 -1.15562e-19)
(-0.620458 0.0799267 0)
(-0.642113 0.0805955 0)
(-0.664128 0.0812343 -1.07055e-19)
(-0.686501 0.081842 -1.0453e-19)
(-0.709232 0.0824171 0)
(-0.732319 0.082958 1.99036e-19)
(-0.755762 0.0834631 -9.72895e-20)
(-0.779557 0.0839307 9.50587e-20)
(-0.803704 0.0843594 0)
(-0.8282 0.0847478 0)
(-0.853041 0.0850954 0)
(-0.878224 0.0854026 0)
(-0.903745 0.0856722 8.50397e-20)
(-0.9296 0.0859092 1.66254e-19)
(-0.955786 0.0861206 8.14651e-20)
(-0.982298 0.0863154 -7.97438e-20)
(-1.00911 0.0865022 0)
(-1.03618 0.0866732 1.52496e-19)
(-1.06346 0.0867747 1.49119e-19)
(-1.09097 0.0867946 1.45825e-19)
(-1.11874 0.0867655 -1.4263e-19)
(-1.14673 0.0866962 0)
(-1.17492 0.0865851 -2.04911e-19)
(-1.20331 0.0864281 0)
(-1.23187 0.0862213 6.53086e-20)
(-1.26057 0.0859614 6.41563e-20)
(-1.28941 0.0856458 0)
(-1.31837 0.0852725 0)
(-1.34741 0.0848401 1.20427e-19)
(-1.37653 0.0843473 0)
(-1.40569 0.0837934 1.15682e-19)
(-1.43487 0.0831777 0)
(-1.46405 0.0824994 -1.11203e-19)
(-1.4932 0.081758 -2.18312e-19)
(-1.5223 0.080953 0)
(-1.55132 0.0800835 0)
(-1.58023 0.0791489 0)
(-1.609 0.0781479 -1.00994e-19)
(-1.63759 0.0770786 0)
(-1.66598 0.0759386 -9.72382e-20)
(-1.69413 0.0747249 0)
(-1.722 0.0734335 0)
(-1.74955 0.0720596 1.83926e-19)
(-1.77674 0.0705976 0)
(-1.80353 0.069041 8.84409e-20)
(-1.82985 0.0673823 0)
(-1.85566 0.0656134 8.50934e-20)
(-1.88089 0.0637246 0)
(-1.90548 0.0617051 0)
(-1.92936 0.0595432 0)
(-1.95244 0.0572272 2.35804e-19)
(-1.97465 0.054746 7.706e-20)
(-1.99589 0.0520889 0)
(-2.01606 0.049246 0)
(-2.03506 0.0462088 0)
(-2.05277 0.0429705 0)
(-2.06909 0.0395276 -6.89e-20)
(-2.08389 0.0358796 1.34411e-19)
(-2.09705 0.0320285 6.55811e-20)
(-2.10845 0.0279783 -1.27784e-19)
(-2.11797 0.0237359 -1.24427e-19)
(-2.12548 0.0193102 -6.04925e-20)
(-2.13088 0.0147078 0)
(-2.13404 0.00993119 -1.14131e-19)
(-2.13483 0.00499586 0)
(-2.13319 -5.54808e-05 1.06847e-19)
(-2.12904 -0.005187 5.14178e-20)
(-2.12229 -0.0103872 0)
(-2.11288 -0.0156469 -9.53654e-20)
(-2.10073 -0.0209552 -4.55263e-20)
(-2.08579 -0.0262989 0)
(-2.06801 -0.0316617 -4.18888e-20)
(-2.04733 -0.0370248 1.18538e-19)
(-2.02373 -0.0423684 0)
(-1.99717 -0.0476705 0)
(-1.96765 -0.0529062 0)
(-1.93518 -0.0580474 0)
(-1.89977 -0.063064 5.76174e-20)
(-1.86146 -0.0679255 5.24217e-20)
(-1.82031 -0.0726006 0)
(-1.7764 -0.0770566 0)
(-1.72983 -0.0812601 0)
(-1.68072 -0.0851775 0)
(-1.62921 -0.0887757 0)
(-1.57548 -0.0920222 0)
(-1.51972 -0.0948863 2.05252e-20)
(-1.46213 -0.0973398 -9.4935e-22)
(-1.40295 -0.0993577 0)
(-1.34243 -0.100919 0)
(-1.28085 -0.102003 3.91995e-21)
(-1.21848 -0.102597 0)
(-1.15563 -0.102689 5.333e-21)
(-1.09261 -0.102278 8.35627e-21)
(-1.02972 -0.101365 0)
(-0.967286 -0.0999536 0)
(-0.905623 -0.0980534 -2.04101e-20)
(-0.845047 -0.0956855 -4.59104e-20)
(-0.785857 -0.0928731 0)
(-0.728343 -0.0896379 0)
(-0.672783 -0.0860115 0)
(-0.61944 -0.082032 -3.57475e-20)
(-0.568546 -0.0777417 3.83027e-20)
(-0.520305 -0.0731803 0)
(-0.474906 -0.06839 8.46989e-20)
(-0.432501 -0.0634211 4.39505e-20)
(-0.393211 -0.0583268 -9.28182e-20)
(-0.357123 -0.0531579 0)
(-0.324286 -0.0479637 0)
(-0.29472 -0.0427939 -1.02854e-19)
(-0.268406 -0.0376997 -5.3119e-20)
(-0.245292 -0.0327335 0)
(-0.225286 -0.027944 0)
(-0.208263 -0.0233756 0)
(-0.194064 -0.019068 0)
(-0.182496 -0.0150581 -1.17334e-19)
(-0.173339 -0.0113789 0)
(-0.166342 -0.0080585 0)
(-0.161225 -0.00512165 0)
(-0.157681 -0.00258989 0)
(-0.155382 -0.000477525 0)
(-0.153951 0.00119906 0)
(-0.152987 0.00240062 -1.31059e-19)
(-0.151997 0.00304133 0)
(-0.150519 0.00302118 0)
(-0.147519 0.00191252 -2.77824e-19)
(-0.143167 -0.000371024 1.41993e-19)
(-0.133224 -0.00605826 -1.46133e-19)
(-0.124823 -0.011848 1.49432e-19)
(0.000181083 -0.0170586 0)
(-0.000106886 -0.0175067 1.18125e-18)
(-0.00172748 -0.012838 0)
(-0.00429009 -0.00674509 3.1737e-19)
(-0.00768137 -0.000170421 0)
(-0.0117394 0.00642657 0)
(-0.0163502 0.0127756 -2.16002e-19)
(-0.0214773 0.018763 0)
(-0.0270942 0.0243304 0)
(-0.033185 0.02945 0)
(-0.0397401 0.0341188 0)
(-0.0467509 0.0383556 0)
(-0.0542048 0.0421948 6.13006e-19)
(-0.0620844 0.0456787 2.94269e-19)
(-0.0703694 0.0488519 -2.83004e-19)
(-0.0790387 0.0517581 0)
(-0.0880714 0.0544387 0)
(-0.0974471 0.0569303 0)
(-0.107147 0.0592648 0)
(-0.117156 0.0614688 0)
(-0.12746 0.0635643 2.28208e-19)
(-0.13805 0.0655696 2.20648e-19)
(-0.148917 0.0674995 -2.13451e-19)
(-0.160057 0.069366 2.06592e-19)
(-0.171467 0.071179 0)
(-0.183145 0.072946 0)
(-0.195093 0.074673 1.87876e-19)
(-0.207311 0.0763645 0)
(-0.219802 0.0780235 0)
(-0.23257 0.0796522 1.71462e-19)
(-0.245617 0.0812518 1.66399e-19)
(-0.258948 0.0828231 1.61574e-19)
(-0.272566 0.0843664 0)
(-0.286476 0.0858816 0)
(-0.300681 0.0873688 -1.48192e-19)
(-0.315184 0.0888278 0)
(-0.32999 0.0902585 0)
(-0.345101 0.0916608 1.36295e-19)
(-0.360522 0.0930347 -1.32535e-19)
(-0.376254 0.0943799 1.28978e-19)
(-0.392302 0.0956964 0)
(-0.40867 0.0969839 0)
(-0.425359 0.0982424 2.38179e-19)
(-0.442372 0.099472 0)
(-0.459713 0.100673 2.26089e-19)
(-0.477383 0.101844 3.30576e-19)
(-0.495385 0.102987 -3.22281e-19)
(-0.51372 0.1041 2.09493e-19)
(-0.532391 0.105184 0)
(-0.551399 0.106237 0)
(-0.570746 0.107259 1.94552e-19)
(-0.590432 0.108249 9.49887e-20)
(-0.610458 0.109206 0)
(-0.630825 0.110128 0)