# vtk DataFile Version 2.0
sampleSurface
ASCII
DATASET POLYDATA
POINTS 502 float
-0.0206 0 -0.0005
-0.0190172 0 -0.0005
-0.0190172 0 0.0005
-0.0206 0 0.0005
-0.0174976 0 -0.0005
-0.0174976 0 0.0005
-0.0160387 0 -0.0005
-0.0160387 0 0.0005
-0.0146381 0 -0.0005
-0.0146381 0 0.0005
-0.0132934 0 -0.0005
-0.0132934 0 0.0005
-0.0120025 0 -0.0005
-0.0120025 0 0.0005
-0.0107632 0 -0.0005
-0.0107632 0 0.0005
-0.00957337 0 -0.0005
-0.00957337 0 0.0005
-0.00843108 0 -0.0005
-0.00843108 0 0.0005
-0.00733443 0 -0.0005
-0.00733443 0 0.0005
-0.0062816 0 -0.0005
-0.0062816 0 0.0005
-0.00527083 0 -0.0005
-0.00527083 0 0.0005
-0.00430044 0 -0.0005
-0.00430044 0 0.0005
-0.00336883 0 -0.0005
-0.00336883 0 0.0005
-0.00247443 0 -0.0005
-0.00247443 0 0.0005
-0.00161577 0 -0.0005
-0.00161577 0 0.0005
-0.000791418 0 -0.0005
-0.000791418 0 0.0005
0 0 -0.0005
0 0 0.0005
0 -0.005 -0.0005
0 -0.005 0.0005
0 -0.00423364 0.0005
0 -0.00423364 -0.0005
0 -0.00353089 0.0005
0 -0.00353089 -0.0005
0 -0.00288647 0.0005
0 -0.00288647 -0.0005
0 -0.00229553 0.0005
0 -0.00229553 -0.0005
0 -0.00175363 0.0005
0 -0.00175363 -0.0005
0 -0.00125671 0.0005
0 -0.00125671 -0.0005
0 -0.000801036 0.0005
0 -0.000801036 -0.0005
0 -0.000383178 0.0005
0 -0.000383178 -0.0005
0 -0.0254 -0.0005
0 -0.0254 0.0005
0 -0.0242667 0.0005
0 -0.0242667 -0.0005
0 -0.0231333 0.0005
0 -0.0231333 -0.0005
0 -0.022 0.0005
0 -0.022 -0.0005
0 -0.0208667 0.0005
0 -0.0208667 -0.0005
0 -0.0197333 0.0005
0 -0.0197333 -0.0005
0 -0.0186 0.0005
0 -0.0186 -0.0005
0 -0.0174667 0.0005
0 -0.0174667 -0.0005
0 -0.0163333 0.0005
0 -0.0163333 -0.0005
0 -0.0152 0.0005
0 -0.0152 -0.0005
0 -0.0140667 0.0005
0 -0.0140667 -0.0005
0 -0.0129333 0.0005
0 -0.0129333 -0.0005
0 -0.0118 0.0005
0 -0.0118 -0.0005
0 -0.0106667 0.0005
0 -0.0106667 -0.0005
0 -0.00953333 0.0005
0 -0.00953333 -0.0005
0 -0.0084 0.0005
0 -0.0084 -0.0005
0 -0.00726667 0.0005
0 -0.00726667 -0.0005
0 -0.00613333 0.0005
0 -0.00613333 -0.0005
0.000528387 -0.0254 -0.0005
0.000528387 -0.0254 0.0005
0.00106088 -0.0254 -0.0005
0.00106088 -0.0254 0.0005
0.00159752 -0.0254 -0.0005
0.00159752 -0.0254 0.0005
0.00213833 -0.0254 -0.0005
0.00213833 -0.0254 0.0005
0.00268334 -0.0254 -0.0005
0.00268334 -0.0254 0.0005
0.00323259 -0.0254 -0.0005
0.00323259 -0.0254 0.0005
0.00378611 -0.0254 -0.0005
0.00378611 -0.0254 0.0005
0.00434393 -0.0254 -0.0005
0.00434393 -0.0254 0.0005
0.00490609 -0.0254 -0.0005
0.00490609 -0.0254 0.0005
0.00547262 -0.0254 -0.0005
0.00547262 -0.0254 0.0005
0.00604356 -0.0254 -0.0005
0.00604356 -0.0254 0.0005
0.00661893 -0.0254 -0.0005
0.00661893 -0.0254 0.0005
0.00719878 -0.0254 -0.0005
0.00719878 -0.0254 0.0005
0.00778313 -0.0254 -0.0005
0.00778313 -0.0254 0.0005
0.00837203 -0.0254 -0.0005
0.00837203 -0.0254 0.0005
0.00896551 -0.0254 -0.0005
0.00896551 -0.0254 0.0005
0.0095636 -0.0254 -0.0005
0.0095636 -0.0254 0.0005
0.0101663 -0.0254 -0.0005
0.0101663 -0.0254 0.0005
0.0107738 -0.0254 -0.0005
0.0107738 -0.0254 0.0005
0.0113859 -0.0254 -0.0005
0.0113859 -0.0254 0.0005
0.0120028 -0.0254 -0.0005
0.0120028 -0.0254 0.0005
0.0126245 -0.0254 -0.0005
0.0126245 -0.0254 0.0005
0.0132511 -0.0254 -0.0005
0.0132511 -0.0254 0.0005
0.0138825 -0.0254 -0.0005
0.0138825 -0.0254 0.0005
0.0145188 -0.0254 -0.0005
0.0145188 -0.0254 0.0005
0.0151601 -0.0254 -0.0005
0.0151601 -0.0254 0.0005
0.0158063 -0.0254 -0.0005
0.0158063 -0.0254 0.0005
0.0164576 -0.0254 -0.0005
0.0164576 -0.0254 0.0005
0.0171139 -0.0254 -0.0005
0.0171139 -0.0254 0.0005
0.0177754 -0.0254 -0.0005
0.0177754 -0.0254 0.0005
0.018442 -0.0254 -0.0005
0.018442 -0.0254 0.0005
0.0191137 -0.0254 -0.0005
0.0191137 -0.0254 0.0005
0.0197907 -0.0254 -0.0005
0.0197907 -0.0254 0.0005
0.020473 -0.0254 -0.0005
0.020473 -0.0254 0.0005
0.0211606 -0.0254 -0.0005
0.0211606 -0.0254 0.0005
0.0218535 -0.0254 -0.0005
0.0218535 -0.0254 0.0005
0.0225517 -0.0254 -0.0005
0.0225517 -0.0254 0.0005
0.0232555 -0.0254 -0.0005
0.0232555 -0.0254 0.0005
0.0239647 -0.0254 -0.0005
0.0239647 -0.0254 0.0005
0.0246794 -0.0254 -0.0005
0.0246794 -0.0254 0.0005
0.0253996 -0.0254 -0.0005
0.0253996 -0.0254 0.0005
0.0261255 -0.0254 -0.0005
0.0261255 -0.0254 0.0005
0.026857 -0.0254 -0.0005
0.026857 -0.0254 0.0005
0.0275942 -0.0254 -0.0005
0.0275942 -0.0254 0.0005
0.0283371 -0.0254 -0.0005
0.0283371 -0.0254 0.0005
0.0290858 -0.0254 -0.0005
0.0290858 -0.0254 0.0005
0.0298403 -0.0254 -0.0005
0.0298403 -0.0254 0.0005
0.0306007 -0.0254 -0.0005
0.0306007 -0.0254 0.0005
0.031367 -0.0254 -0.0005
0.031367 -0.0254 0.0005
0.0321393 -0.0254 -0.0005
0.0321393 -0.0254 0.0005
0.0329175 -0.0254 -0.0005
0.0329175 -0.0254 0.0005
0.0337019 -0.0254 -0.0005
0.0337019 -0.0254 0.0005
0.0344923 -0.0254 -0.0005
0.0344923 -0.0254 0.0005
0.0352888 -0.0254 -0.0005
0.0352888 -0.0254 0.0005
0.0360916 -0.0254 -0.0005
0.0360916 -0.0254 0.0005
0.0369006 -0.0254 -0.0005
0.0369006 -0.0254 0.0005
0.0377158 -0.0254 -0.0005
0.0377158 -0.0254 0.0005
0.0385375 -0.0254 -0.0005
0.0385375 -0.0254 0.0005
0.0393655 -0.0254 -0.0005
0.0393655 -0.0254 0.0005
0.0401999 -0.0254 -0.0005
0.0401999 -0.0254 0.0005
0.0410408 -0.0254 -0.0005
0.0410408 -0.0254 0.0005
0.0418883 -0.0254 -0.0005
0.0418883 -0.0254 0.0005
0.0427424 -0.0254 -0.0005
0.0427424 -0.0254 0.0005
0.0436031 -0.0254 -0.0005
0.0436031 -0.0254 0.0005
0.0444704 -0.0254 -0.0005
0.0444704 -0.0254 0.0005
0.0453446 -0.0254 -0.0005
0.0453446 -0.0254 0.0005
0.0462255 -0.0254 -0.0005
0.0462255 -0.0254 0.0005
0.0471133 -0.0254 -0.0005
0.0471133 -0.0254 0.0005
0.048008 -0.0254 -0.0005
0.048008 -0.0254 0.0005
0.0489096 -0.0254 -0.0005
0.0489096 -0.0254 0.0005
0.0498183 -0.0254 -0.0005
0.0498183 -0.0254 0.0005
0.050734 -0.0254 -0.0005
0.050734 -0.0254 0.0005
0.0516568 -0.0254 -0.0005
0.0516568 -0.0254 0.0005
0.0525868 -0.0254 -0.0005
0.0525868 -0.0254 0.0005
0.053524 -0.0254 -0.0005
0.053524 -0.0254 0.0005
0.0544686 -0.0254 -0.0005
0.0544686 -0.0254 0.0005
0.0554204 -0.0254 -0.0005
0.0554204 -0.0254 0.0005
0.0563797 -0.0254 -0.0005
0.0563797 -0.0254 0.0005
0.0573464 -0.0254 -0.0005
0.0573464 -0.0254 0.0005
0.0583206 -0.0254 -0.0005
0.0583206 -0.0254 0.0005
0.0593025 -0.0254 -0.0005
0.0593025 -0.0254 0.0005
0.0602919 -0.0254 -0.0005
0.0602919 -0.0254 0.0005
0.0612891 -0.0254 -0.0005
0.0612891 -0.0254 0.0005
0.0622939 -0.0254 -0.0005
0.0622939 -0.0254 0.0005
0.0633067 -0.0254 -0.0005
0.0633067 -0.0254 0.0005
0.0643272 -0.0254 -0.0005
0.0643272 -0.0254 0.0005
0.0653557 -0.0254 -0.0005
0.0653557 -0.0254 0.0005
0.0663923 -0.0254 -0.0005
0.0663923 -0.0254 0.0005
0.0674368 -0.0254 -0.0005
0.0674368 -0.0254 0.0005
0.0684895 -0.0254 -0.0005
0.0684895 -0.0254 0.0005
0.0695504 -0.0254 -0.0005
0.0695504 -0.0254 0.0005
0.0706195 -0.0254 -0.0005
0.0706195 -0.0254 0.0005
0.0716969 -0.0254 -0.0005
0.0716969 -0.0254 0.0005
0.0727828 -0.0254 -0.0005
0.0727828 -0.0254 0.0005
0.073877 -0.0254 -0.0005
0.073877 -0.0254 0.0005
0.0749798 -0.0254 -0.0005
0.0749798 -0.0254 0.0005
0.0760911 -0.0254 -0.0005
0.0760911 -0.0254 0.0005
0.0772111 -0.0254 -0.0005
0.0772111 -0.0254 0.0005
0.0783398 -0.0254 -0.0005
0.0783398 -0.0254 0.0005
0.0794772 -0.0254 -0.0005
0.0794772 -0.0254 0.0005
0.0806235 -0.0254 -0.0005
0.0806235 -0.0254 0.0005
0.0817787 -0.0254 -0.0005
0.0817787 -0.0254 0.0005
0.0829429 -0.0254 -0.0005
0.0829429 -0.0254 0.0005
0.0841162 -0.0254 -0.0005
0.0841162 -0.0254 0.0005
0.0852985 -0.0254 -0.0005
0.0852985 -0.0254 0.0005
0.0864901 -0.0254 -0.0005
0.0864901 -0.0254 0.0005
0.0876909 -0.0254 -0.0005
0.0876909 -0.0254 0.0005
0.0889011 -0.0254 -0.0005
0.0889011 -0.0254 0.0005
0.0901207 -0.0254 -0.0005
0.0901207 -0.0254 0.0005
0.0913497 -0.0254 -0.0005
0.0913497 -0.0254 0.0005
0.0925883 -0.0254 -0.0005
0.0925883 -0.0254 0.0005
0.0938366 -0.0254 -0.0005
0.0938366 -0.0254 0.0005
0.0950945 -0.0254 -0.0005
0.0950945 -0.0254 0.0005
0.0963622 -0.0254 -0.0005
0.0963622 -0.0254 0.0005
0.0976398 -0.0254 -0.0005
0.0976398 -0.0254 0.0005
0.0989273 -0.0254 -0.0005
0.0989273 -0.0254 0.0005
0.100225 -0.0254 -0.0005
0.100225 -0.0254 0.0005
0.101532 -0.0254 -0.0005
0.101532 -0.0254 0.0005
0.10285 -0.0254 -0.0005
0.10285 -0.0254 0.0005
0.104178 -0.0254 -0.0005
0.104178 -0.0254 0.0005
0.105517 -0.0254 -0.0005
0.105517 -0.0254 0.0005
0.106865 -0.0254 -0.0005
0.106865 -0.0254 0.0005
0.108225 -0.0254 -0.0005
0.108225 -0.0254 0.0005
0.109594 -0.0254 -0.0005
0.109594 -0.0254 0.0005
0.110975 -0.0254 -0.0005
0.110975 -0.0254 0.0005
0.112366 -0.0254 -0.0005
0.112366 -0.0254 0.0005
0.113768 -0.0254 -0.0005
0.113768 -0.0254 0.0005
0.115181 -0.0254 -0.0005
0.115181 -0.0254 0.0005
0.116605 -0.0254 -0.0005
0.116605 -0.0254 0.0005
0.11804 -0.0254 -0.0005
0.11804 -0.0254 0.0005
0.119486 -0.0254 -0.0005
0.119486 -0.0254 0.0005
0.120943 -0.0254 -0.0005
0.120943 -0.0254 0.0005
0.122412 -0.0254 -0.0005
0.122412 -0.0254 0.0005
0.123892 -0.0254 -0.0005
0.123892 -0.0254 0.0005
0.125384 -0.0254 -0.0005
0.125384 -0.0254 0.0005
0.126887 -0.0254 -0.0005
0.126887 -0.0254 0.0005
0.128402 -0.0254 -0.0005
0.128402 -0.0254 0.0005
0.129928 -0.0254 -0.0005
0.129928 -0.0254 0.0005
0.131467 -0.0254 -0.0005
0.131467 -0.0254 0.0005
0.133017 -0.0254 -0.0005
0.133017 -0.0254 0.0005
0.13458 -0.0254 -0.0005
0.13458 -0.0254 0.0005
0.136155 -0.0254 -0.0005
0.136155 -0.0254 0.0005
0.137742 -0.0254 -0.0005
0.137742 -0.0254 0.0005
0.139341 -0.0254 -0.0005
0.139341 -0.0254 0.0005
0.140953 -0.0254 -0.0005
0.140953 -0.0254 0.0005
0.142577 -0.0254 -0.0005
0.142577 -0.0254 0.0005
0.144214 -0.0254 -0.0005
0.144214 -0.0254 0.0005
0.145863 -0.0254 -0.0005
0.145863 -0.0254 0.0005
0.147526 -0.0254 -0.0005
0.147526 -0.0254 0.0005
0.149201 -0.0254 -0.0005
0.149201 -0.0254 0.0005
0.15089 -0.0254 -0.0005
0.15089 -0.0254 0.0005
0.152591 -0.0254 -0.0005
0.152591 -0.0254 0.0005
0.154306 -0.0254 -0.0005
0.154306 -0.0254 0.0005
0.156034 -0.0254 -0.0005
0.156034 -0.0254 0.0005
0.157775 -0.0254 -0.0005
0.157775 -0.0254 0.0005
0.159531 -0.0254 -0.0005
0.159531 -0.0254 0.0005
0.161299 -0.0254 -0.0005
0.161299 -0.0254 0.0005
0.163082 -0.0254 -0.0005
0.163082 -0.0254 0.0005
0.164878 -0.0254 -0.0005
0.164878 -0.0254 0.0005
0.166688 -0.0254 -0.0005
0.166688 -0.0254 0.0005
0.168513 -0.0254 -0.0005
0.168513 -0.0254 0.0005
0.170351 -0.0254 -0.0005
0.170351 -0.0254 0.0005
0.172204 -0.0254 -0.0005
0.172204 -0.0254 0.0005
0.174071 -0.0254 -0.0005
0.174071 -0.0254 0.0005
0.175953 -0.0254 -0.0005
0.175953 -0.0254 0.0005
0.177849 -0.0254 -0.0005
0.177849 -0.0254 0.0005
0.17976 -0.0254 -0.0005
0.17976 -0.0254 0.0005
0.181686 -0.0254 -0.0005
0.181686 -0.0254 0.0005
0.183627 -0.0254 -0.0005
0.183627 -0.0254 0.0005
0.185583 -0.0254 -0.0005
0.185583 -0.0254 0.0005
0.187555 -0.0254 -0.0005
0.187555 -0.0254 0.0005
0.189541 -0.0254 -0.0005
0.189541 -0.0254 0.0005
0.191543 -0.0254 -0.0005
0.191543 -0.0254 0.0005
0.193561 -0.0254 -0.0005
0.193561 -0.0254 0.0005
0.195594 -0.0254 -0.0005
0.195594 -0.0254 0.0005
0.197643 -0.0254 -0.0005
0.197643 -0.0254 0.0005
0.199708 -0.0254 -0.0005
0.199708 -0.0254 0.0005
0.201789 -0.0254 -0.0005
0.201789 -0.0254 0.0005
0.203886 -0.0254 -0.0005
0.203886 -0.0254 0.0005
0.206 -0.0254 -0.0005
0.206 -0.0254 0.0005
0.208047 -0.0251856 -0.0005
0.208047 -0.0251856 0.0005
0.210173 -0.0249628 -0.0005
0.210173 -0.0249628 0.0005
0.212382 -0.0247314 -0.0005
0.212382 -0.0247314 0.0005
0.214677 -0.024491 -0.0005
0.214677 -0.024491 0.0005
0.217061 -0.0242412 -0.0005
0.217061 -0.0242412 0.0005
0.219538 -0.0239817 -0.0005
0.219538 -0.0239817 0.0005
0.222112 -0.0237121 -0.0005
0.222112 -0.0237121 0.0005
0.224785 -0.023432 -0.0005
0.224785 -0.023432 0.0005
0.227563 -0.023141 -0.0005
0.227563 -0.023141 0.0005
0.230449 -0.0228387 -0.0005
0.230449 -0.0228387 0.0005
0.233447 -0.0225246 -0.0005
0.233447 -0.0225246 0.0005
0.236562 -0.0221983 -0.0005
0.236562 -0.0221983 0.0005
0.239797 -0.0218593 -0.0005
0.239797 -0.0218593 0.0005
0.243159 -0.0215071 -0.0005
0.243159 -0.0215071 0.0005
0.246652 -0.0211412 -0.0005
0.246652 -0.0211412 0.0005
0.250281 -0.0207611 -0.0005
0.250281 -0.0207611 0.0005
0.254051 -0.0203661 -0.0005
0.254051 -0.0203661 0.0005
0.257967 -0.0199558 -0.0005
0.257967 -0.0199558 0.0005
0.262036 -0.0195295 -0.0005
0.262036 -0.0195295 0.0005
0.266264 -0.0190867 -0.0005
0.266264 -0.0190867 0.0005
0.270655 -0.0186266 -0.0005
0.270655 -0.0186266 0.0005
0.275218 -0.0181486 -0.0005
0.275218 -0.0181486 0.0005
0.279959 -0.017652 -0.0005
0.279959 -0.017652 0.0005
0.284883 -0.017136 -0.0005
0.284883 -0.017136 0.0005
0.29 -0.0166 -0.0005
0.29 -0.0166 0.0005

POLYGONS 250 1250
4 0 1 2 3
4 1 4 5 2
4 4 6 7 5
4 6 8 9 7
4 8 10 11 9
4 10 12 13 11
4 12 14 15 13
4 14 16 17 15
4 16 18 19 17
4 18 20 21 19
4 20 22 23 21
4 22 24 25 23
4 24 26 27 25
4 26 28 29 27
4 28 30 31 29
4 30 32 33 31
4 32 34 35 33
4 34 36 37 35
4 38 39 40 41
4 41 40 42 43
4 43 42 44 45
4 45 44 46 47
4 47 46 48 49
4 49 48 50 51
4 51 50 52 53
4 53 52 54 55
4 55 54 37 36
4 56 57 58 59
4 59 58 60 61
4 61 60 62 63
4 63 62 64 65
4 65 64 66 67
4 67 66 68 69
4 69 68 70 71
4 71 70 72 73
4 73 72 74 75
4 75 74 76 77
4 77 76 78 79
4 79 78 80 81
4 81 80 82 83
4 83 82 84 85
4 85 84 86 87
4 87 86 88 89
4 89 88 90 91
4 91 90 39 38
4 56 92 93 57
4 92 94 95 93
4 94 96 97 95
4 96 98 99 97
4 98 100 101 99
4 100 102 103 101
4 102 104 105 103
4 104 106 107 105
4 106 108 109 107
4 108 110 111 109
4 110 112 113 111
4 112 114 115 113
4 114 116 117 115
4 116 118 119 117
4 118 120 121 119
4 120 122 123 121
4 122 124 125 123
4 124 126 127 125
4 126 128 129 127
4 128 130 131 129
4 130 132 133 131
4 132 134 135 133
4 134 136 137 135
4 136 138 139 137
4 138 140 141 139
4 140 142 143 141
4 142 144 145 143
4 144 146 147 145
4 146 148 149 147
4 148 150 151 149
4 150 152 153 151
4 152 154 155 153
4 154 156 157 155
4 156 158 159 157
4 158 160 161 159
4 160 162 163 161
4 162 164 165 163
4 164 166 167 165
4 166 168 169 167
4 168 170 171 169
4 170 172 173 171
4 172 174 175 173
4 174 176 177 175
4 176 178 179 177
4 178 180 181 179
4 180 182 183 181
4 182 184 185 183
4 184 186 187 185
4 186 188 189 187
4 188 190 191 189
4 190 192 193 191
4 192 194 195 193
4 194 196 197 195
4 196 198 199 197
4 198 200 201 199
4 200 202 203 201
4 202 204 205 203
4 204 206 207 205
4 206 208 209 207
4 208 210 211 209
4 210 212 213 211
4 212 214 215 213
4 214 216 217 215
4 216 218 219 217
4 218 220 221 219
4 220 222 223 221
4 222 224 225 223
4 224 226 227 225
4 226 228 229 227
4 228 230 231 229
4 230 232 233 231
4 232 234 235 233
4 234 236 237 235
4 236 238 239 237
4 238 240 241 239
4 240 242 243 241
4 242 244 245 243
4 244 246 247 245
4 246 248 249 247
4 248 250 251 249
4 250 252 253 251
4 252 254 255 253
4 254 256 257 255
4 256 258 259 257
4 258 260 261 259
4 260 262 263 261
4 262 264 265 263
4 264 266 267 265
4 266 268 269 267
4 268 270 271 269
4 270 272 273 271
4 272 274 275 273
4 274 276 277 275
4 276 278 279 277
4 278 280 281 279
4 280 282 283 281
4 282 284 285 283
4 284 286 287 285
4 286 288 289 287
4 288 290 291 289
4 290 292 293 291
4 292 294 295 293
4 294 296 297 295
4 296 298 299 297
4 298 300 301 299
4 300 302 303 301
4 302 304 305 303
4 304 306 307 305
4 306 308 309 307
4 308 310 311 309
4 310 312 313 311
4 312 314 315 313
4 314 316 317 315
4 316 318 319 317
4 318 320 321 319
4 320 322 323 321
4 322 324 325 323
4 324 326 327 325
4 326 328 329 327
4 328 330 331 329
4 330 332 333 331
4 332 334 335 333
4 334 336 337 335
4 336 338 339 337
4 338 340 341 339
4 340 342 343 341
4 342 344 345 343
4 344 346 347 345
4 346 348 349 347
4 348 350 351 349
4 350 352 353 351
4 352 354 355 353
4 354 356 357 355
4 356 358 359 357
4 358 360 361 359
4 360 362 363 361
4 362 364 365 363
4 364 366 367 365
4 366 368 369 367
4 368 370 371 369
4 370 372 373 371
4 372 374 375 373
4 374 376 377 375
4 376 378 379 377
4 378 380 381 379
4 380 382 383 381
4 382 384 385 383
4 384 386 387 385
4 386 388 389 387
4 388 390 391 389
4 390 392 393 391
4 392 394 395 393
4 394 396 397 395
4 396 398 399 397
4 398 400 401 399
4 400 402 403 401
4 402 404 405 403
4 404 406 407 405
4 406 408 409 407
4 408 410 411 409
4 410 412 413 411
4 412 414 415 413
4 414 416 417 415
4 416 418 419 417
4 418 420 421 419
4 420 422 423 421
4 422 424 425 423
4 424 426 427 425
4 426 428 429 427
4 428 430 431 429
4 430 432 433 431
4 432 434 435 433
4 434 436 437 435
4 436 438 439 437
4 438 440 441 439
4 440 442 443 441
4 442 444 445 443
4 444 446 447 445
4 446 448 449 447
4 448 450 451 449
4 450 452 453 451
4 452 454 455 453
4 454 456 457 455
4 456 458 459 457
4 458 460 461 459
4 460 462 463 461
4 462 464 465 463
4 464 466 467 465
4 466 468 469 467
4 468 470 471 469
4 470 472 473 471
4 472 474 475 473
4 474 476 477 475
4 476 478 479 477
4 478 480 481 479
4 480 482 483 481
4 482 484 485 483
4 484 486 487 485
4 486 488 489 487
4 488 490 491 489
4 490 492 493 491
4 492 494 495 493
4 494 496 497 495
4 496 498 499 497
4 498 500 501 499
POINT_DATA 502
FIELD attributes 1
U 3 502 float
3.26893 -0.0138726 0.0118598
1.62532 -0.0062523 0.00584452
1.62532 -0.0062523 0.00584452
3.26893 -0.0138726 0.0118598
0.0240378 0.000649435 0
0.0240378 0.000649435 0
0.0177665 4.18247e-05 0
0.0177665 4.18247e-05 0
0.014821 -7.8782e-05 0
0.014821 -7.8782e-05 0
0.0134739 -7.44101e-05 0
0.0134739 -7.44101e-05 0
0.0127557 -4.28988e-05 0
0.0127557 -4.28988e-05 0
0.0123134 -2.32673e-05 0
0.0123134 -2.32673e-05 0
0.0120515 -2.49159e-05 0
0.0120515 -2.49159e-05 0
0.0118588 -9.2377e-06 0
0.0118588 -9.2377e-06 0
0.011683 -4.03942e-06 0
0.011683 -4.03942e-06 0
0.0115833 -1.58725e-05 0
0.0115833 -1.58725e-05 0
0.0115939 -2.34084e-05 0
0.0115939 -2.34084e-05 0
0.0116505 -3.43232e-05 0
0.0116505 -3.43232e-05 0
0.0117709 -2.32075e-05 0
0.0117709 -2.32075e-05 0
0.0118135 -4.14535e-05 0
0.0118135 -4.14535e-05 0
0.012089 -1.83275e-05 0
0.012089 -1.83275e-05 0
0.0119965 -0.000180992 0
0.0119965 -0.000180992 0
0.00570045 0.000299576 0
0.00570045 0.000299576 0
5.25418e-05 -0.0043544 0
5.25418e-05 -0.0043544 0
-0.000174807 -0.00589967 0
-0.000174807 -0.00589967 0
-9.36515e-05 -0.00636763 0
-9.36515e-05 -0.00636763 0
-0.000200025 -0.00633336 -6.70542e-22
-0.000200025 -0.00633336 -6.70542e-22
-0.00061782 -0.00569785 7.44081e-23
-0.00061782 -0.00569785 7.44081e-23
-0.00109292 -0.00457449 -7.83563e-23
-0.00109292 -0.00457449 -7.83563e-23
-0.0015196 -0.00310886 8.41258e-23
-0.0015196 -0.00310886 8.41258e-23
-0.00171451 -0.0011813 8.51958e-22
-0.00171451 -0.0011813 8.51958e-22
-0.00047025 0.000413697 0
-0.00047025 0.000413697 0
-4.76714e-05 5.87918e-05 0
-4.76714e-05 5.87918e-05 0
-5.56993e-05 0.000504063 0
-5.56993e-05 0.000504063 0
2.3577e-05 0.00103947 0
2.3577e-05 0.00103947 0
0.000169857 0.000761441 0
0.000169857 0.000761441 0
0.000236324 -7.1641e-05 -1.75224e-22
0.000236324 -7.1641e-05 -1.75224e-22
0.000200767 -0.00109494 -1.69287e-26
0.000200767 -0.00109494 -1.69287e-26
0.000148121 -0.00189451 1.75207e-22
0.000148121 -0.00189451 1.75207e-22
8.62963e-05 -0.00240093 3.43843e-22
8.62963e-05 -0.00240093 3.43843e-22
-0.000207396 -0.00235566 1.16655e-25
-0.000207396 -0.00235566 1.16655e-25
-0.000514407 -0.000449458 -3.43726e-22
-0.000514407 -0.000449458 -3.43726e-22
-0.000524107 0.00263755 0
-0.000524107 0.00263755 0
-0.0003912 0.00558075 0
-0.0003912 0.00558075 0
-0.000127506 0.00819382 0
-0.000127506 0.00819382 0
0.000268996 0.00971256 0
0.000268996 0.00971256 0
0.000641641 0.00957602 0
0.000641641 0.00957602 0
0.000897023 0.00774908 0
0.000897023 0.00774908 0
0.000923949 0.00418303 0
0.000923949 0.00418303 0
0.000606308 -0.000473135 0
0.000606308 -0.000473135 0
-0.000120836 8.44496e-05 0
-0.000120836 8.44496e-05 0
-0.000306256 0.000214042 0
-0.000306256 0.000214042 0
-0.000609737 0.000428932 0
-0.000609737 0.000428932 0
-0.001013 0.000494821 0
-0.001013 0.000494821 0
-0.00130047 0.000285668 0
-0.00130047 0.000285668 0
-0.00133293 1.76473e-05 -1.95945e-23
-0.00133293 1.76473e-05 -1.95945e-23
-0.00120672 -0.000129831 -2.03746e-25
-0.00120672 -0.000129831 -2.03746e-25
-0.000993966 -0.000197701 1.94622e-23
-0.000993966 -0.000197701 1.94622e-23
-0.000739642 -0.000217759 1.90817e-23
-0.000739642 -0.000217759 1.90817e-23
-0.000502224 -0.00019484 1.91176e-23
-0.000502224 -0.00019484 1.91176e-23
-0.000305135 -0.000145235 0
-0.000305135 -0.000145235 0
-0.000175524 -8.52682e-05 0
-0.000175524 -8.52682e-05 0
-0.000103925 -2.38212e-05 -1.83781e-23
-0.000103925 -2.38212e-05 -1.83781e-23
-8.64175e-05 4.78123e-05 -1.84144e-23
-8.64175e-05 4.78123e-05 -1.84144e-23
-0.000127237 9.98012e-05 0
-0.000127237 9.98012e-05 0
-0.000186056 0.000118798 1.77964e-23
-0.000186056 0.000118798 1.77964e-23
-0.000253612 0.000143846 1.78327e-23
-0.000253612 0.000143846 1.78327e-23
-0.000345954 0.000160654 0
-0.000345954 0.000160654 0
-0.000443008 0.000145446 0
-0.000443008 0.000145446 0
-0.000529785 0.000122765 -1.69291e-23
-0.000529785 0.000122765 -1.69291e-23
-0.000605579 9.89396e-05 -1.69653e-23
-0.000605579 9.89396e-05 -1.69653e-23
-0.000667981 7.58424e-05 -1.64582e-23
-0.000667981 7.58424e-05 -1.64582e-23
-0.0007146 5.88485e-05 -1.64942e-23
-0.0007146 5.88485e-05 -1.64942e-23
-0.0007416 3.7857e-05 0
-0.0007416 3.7857e-05 0
-0.000745498 1.20557e-05 -1.57041e-23
-0.000745498 1.20557e-05 -1.57041e-23
-0.000709368 -2.13544e-05 -1.57396e-23
-0.000709368 -2.13544e-05 -1.57396e-23
-0.000623036 -5.13507e-05 1.51698e-23
-0.000623036 -5.13507e-05 1.51698e-23
-0.000500017 -7.48649e-05 1.52048e-23
-0.000500017 -7.48649e-05 1.52048e-23
-0.00033853 -0.000118931 -1.46116e-23
-0.00033853 -0.000118931 -1.46116e-23
-0.00011206 -0.000167943 -1.46461e-23
-0.00011206 -0.000167943 -1.46461e-23
0.00018308 -0.000194519 0
0.00018308 -0.000194519 0
0.00051768 -0.000220629 0
0.00051768 -0.000220629 0
0.000889192 -0.000271684 0
0.000889192 -0.000271684 0
0.0013267 -0.000311286 0
0.0013267 -0.000311286 0
0.00182669 -0.000291034 1.29529e-23
0.00182669 -0.000291034 1.29529e-23
0.00233728 -0.000258947 1.29855e-23
0.00233728 -0.000258947 1.29855e-23
0.00283338 -0.000297105 -2.49291e-23
0.00283338 -0.000297105 -2.49291e-23
0.00337127 -0.000361908 -2.49931e-23
0.00337127 -0.000361908 -2.49931e-23
0.00399977 -0.000330571 2.41222e-23
0.00399977 -0.000330571 2.41222e-23
0.00464296 -0.000216472 2.41854e-23
0.00464296 -0.000216472 2.41854e-23
0.0051824 -0.000159396 0
0.0051824 -0.000159396 0
0.00562844 -0.000144276 -2.31906e-23
0.00562844 -0.000144276 -2.31906e-23
0.00606902 -8.19685e-06 -2.32533e-23
0.00606902 -8.19685e-06 -2.32533e-23
0.00645994 0.000175562 -2.27253e-23
0.00645994 0.000175562 -2.27253e-23
0.00664894 0.000194197 -2.6967e-25
0.00664894 0.000194197 -2.6967e-25
0.00667642 0.000228533 2.25811e-23
0.00667642 0.000228533 2.25811e-23
0.00666817 0.000573105 2.21465e-23
0.00666817 0.000573105 2.21465e-23
0.00638077 0.000984203 4.42212e-23
0.00638077 0.000984203 4.42212e-23
0.00565152 0.0010557 2.2075e-23
0.00565152 0.0010557 2.2075e-23
0.00489806 0.000651585 0
0.00489806 0.000651585 0
0.00439802 -3.93726e-05 0
0.00439802 -3.93726e-05 0
0.00402101 -0.000574184 0
0.00402101 -0.000574184 0
0.00366171 -0.000767003 0
0.00366171 -0.000767003 0
0.00335724 -0.000564176 -2.13472e-23
0.00335724 -0.000564176 -2.13472e-23
0.00326766 -0.000131587 -2.14121e-23
0.00326766 -0.000131587 -2.14121e-23
0.00329024 7.12718e-05 2.10273e-23
0.00329024 7.12718e-05 2.10273e-23
0.00305611 0.0002071 2.10924e-23
0.00305611 0.0002071 2.10924e-23
0.0027467 0.000511269 0
0.0027467 0.000511269 0
0.00262551 0.000657532 -2.06296e-23
0.00262551 0.000657532 -2.06296e-23
0.00215601 0.000543416 -2.06953e-23
0.00215601 0.000543416 -2.06953e-23
0.00145412 0.000281848 2.06301e-23
0.00145412 0.000281848 2.06301e-23
0.00141662 5.8014e-05 2.0697e-23
0.00141662 5.8014e-05 2.0697e-23
0.00196503 7.37278e-05 0
0.00196503 7.37278e-05 0
0.00241592 -1.36826e-05 0
0.00241592 -1.36826e-05 0
0.00269071 -0.000447714 -2.01018e-23
0.00269071 -0.000447714 -2.01018e-23
0.00328995 -0.000896035 -2.01694e-23
0.00328995 -0.000896035 -2.01694e-23
0.00446333 -0.00105584 0
0.00446333 -0.00105584 0
0.00588033 -0.000970419 -2.00108e-23
0.00588033 -0.000970419 -2.00108e-23
0.00710319 -0.000732521 -2.00798e-23
0.00710319 -0.000732521 -2.00798e-23
0.0078881 7.32179e-05 -2.02904e-23
0.0078881 7.32179e-05 -2.02904e-23
0.00797368 0.0013756 -2.03616e-23
0.00797368 0.0013756 -2.03616e-23
0.00746054 0.00180702 0
0.00746054 0.00180702 0
0.00701751 0.000612795 0
0.00701751 0.000612795 0
0.00707461 -0.00106745 1.96338e-23
0.00707461 -0.00106745 1.96338e-23
0.00739646 -0.00166839 1.9705e-23
0.00739646 -0.00166839 1.9705e-23
0.00726468 -0.000876907 0
0.00726468 -0.000876907 0
0.00615843 0.00032281 1.92311e-23
0.00615843 0.00032281 1.92311e-23
0.00437365 0.00100265 3.84516e-23
0.00437365 0.00100265 3.84516e-23
0.00247801 0.00114012 1.92208e-23
0.00247801 0.00114012 1.92208e-23
0.000678324 0.00107377 1.93475e-23
0.000678324 0.00107377 1.93475e-23
-0.00100627 0.000975195 1.94212e-23
-0.00100627 0.000975195 1.94212e-23
-0.0025548 0.000894827 3.97231e-23
-0.0025548 0.000894827 3.97231e-23
-0.00396549 0.000827544 3.98768e-23
-0.00396549 0.000827544 3.98768e-23
-0.00525273 0.000760194 4.08263e-23
-0.00525273 0.000760194 4.08263e-23
-0.00641859 0.000694522 4.09868e-23
-0.00641859 0.000694522 4.09868e-23
-0.0074627 0.000635934 -4.16418e-23
-0.0074627 0.000635934 -4.16418e-23
-0.00838163 0.000578555 -4.18079e-23
-0.00838163 0.000578555 -4.18079e-23
-0.00916604 0.000509351 0
-0.00916604 0.000509351 0
-0.0098112 0.000435454 0
-0.0098112 0.000435454 0
-0.0103114 0.00036629 4.14125e-23
-0.0103114 0.00036629 4.14125e-23
-0.0106587 0.000291854 4.15827e-23
-0.0106587 0.000291854 4.15827e-23
-0.0108545 0.000210696 -4.01387e-23
-0.0108545 0.000210696 -4.01387e-23
-0.0109125 0.000138413 -4.0306e-23
-0.0109125 0.000138413 -4.0306e-23
-0.0108387 7.17702e-05 3.81316e-23
-0.0108387 7.17702e-05 3.81316e-23
-0.0106263 -7.08192e-08 7.52003e-23
-0.0106263 -7.08192e-08 7.52003e-23
-0.0102842 -6.35451e-05 7.2637e-23
-0.0102842 -6.35451e-05 7.2637e-23
-0.00983139 -0.000111674 3.57249e-23
-0.00983139 -0.000111674 3.57249e-23
-0.00927794 -0.000152284 0
-0.00927794 -0.000152284 0
-0.00865229 -0.000182418 0
-0.00865229 -0.000182418 0
-0.00796573 -0.000205803 0
-0.00796573 -0.000205803 0
-0.00721477 -0.000240631 0
-0.00721477 -0.000240631 0
-0.00640078 -0.000275487 0
-0.00640078 -0.000275487 0
-0.00552435 -0.000297209 0
-0.00552435 -0.000297209 0
-0.0045912 -0.000307093 0
-0.0045912 -0.000307093 0
-0.003609 -0.000295988 -2.32348e-23
-0.003609 -0.000295988 -2.32348e-23
-0.00259229 -0.00025087 -4.558e-23
-0.00259229 -0.00025087 -4.558e-23
-0.00157258 -0.000165254 -2.23412e-23
-0.00157258 -0.000165254 -2.23412e-23
-0.000639685 -7.13356e-05 0
-0.000639685 -7.13356e-05 0
8.88378e-05 -3.51279e-05 0
8.88378e-05 -3.51279e-05 0
0.000577296 -7.50657e-05 -1.94714e-23
0.000577296 -7.50657e-05 -1.94714e-23
0.000912091 -0.000129863 -1.95629e-23
0.000912091 -0.000129863 -1.95629e-23
0.00123585 -0.00014298 0
0.00123585 -0.00014298 0
0.00167585 -0.00010123 0
0.00167585 -0.00010123 0
0.00222872 -1.71019e-05 0
0.00222872 -1.71019e-05 0
0.00270517 7.41625e-05 1.75537e-23
0.00270517 7.41625e-05 1.75537e-23
0.00289256 0.000134547 1.76387e-23
0.00289256 0.000134547 1.76387e-23
0.00278456 0.000142504 0
0.00278456 0.000142504 0
0.00258323 7.70768e-05 -1.71347e-23
0.00258323 7.70768e-05 -1.71347e-23
0.002457 -5.99755e-05 -2.69788e-25
0.002457 -5.99755e-05 -2.69788e-25
0.00239588 -0.00021517 1.70333e-23
0.00239588 -0.00021517 1.70333e-23
0.00230906 -0.000304983 1.65734e-23
0.00230906 -0.000304983 1.65734e-23
0.00215235 -0.000276017 1.66564e-23
0.00215235 -0.000276017 1.66564e-23
0.00194604 -0.000135803 -1.62556e-23
0.00194604 -0.000135803 -1.62556e-23
0.00172751 7.64741e-05 -1.6338e-23
0.00172751 7.64741e-05 -1.6338e-23
0.00157271 0.000246399 0
0.00157271 0.000246399 0
0.00171379 0.000195182 0
0.00171379 0.000195182 0
0.00249124 -3.25771e-05 0
0.00249124 -3.25771e-05 0
0.0039138 -0.000128368 0
0.0039138 -0.000128368 0
0.00541717 -6.18996e-05 2.82308e-23
0.00541717 -6.18996e-05 2.82308e-23
0.00638615 -6.49664e-05 5.63394e-23
0.00638615 -6.49664e-05 5.63394e-23
0.00655369 -5.86167e-05 2.81079e-23
0.00655369 -5.86167e-05 2.81079e-23
0.00585191 0.000150562 0
0.00585191 0.000150562 0
0.0043759 0.000474429 0
0.0043759 0.000474429 0
0.00245224 0.000687875 -2.9725e-23
0.00245224 0.000687875 -2.9725e-23
0.000464235 0.000703836 -2.98842e-23
0.000464235 0.000703836 -2.98842e-23
-0.00136075 0.000634158 0
-0.00136075 0.000634158 0
-0.00289012 0.000553704 0
-0.00289012 0.000553704 0
-0.00407333 0.000433782 -3.44857e-23
-0.00407333 0.000433782 -3.44857e-23
-0.00493914 0.000316528 1.30385e-25
-0.00493914 0.000316528 1.30385e-25
-0.00542647 0.000208523 3.49953e-23
-0.00542647 0.000208523 3.49953e-23
-0.00552322 6.90024e-05 0
-0.00552322 6.90024e-05 0
-0.00522459 -4.86987e-05 3.21633e-23
-0.00522459 -4.86987e-05 3.21633e-23
-0.0045402 -0.000154897 6.26343e-23
-0.0045402 -0.000154897 6.26343e-23
-0.00352938 -0.000235889 3.04614e-23
-0.00352938 -0.000235889 3.04614e-23
-0.00227244 -0.000274436 0
-0.00227244 -0.000274436 0
-0.000879684 -0.000282798 -2.4437e-23
-0.000879684 -0.000282798 -2.4437e-23
0.000547922 -0.000247177 -1.69741e-24
0.000547922 -0.000247177 -1.69741e-24
0.00190109 -0.00019219 2.30077e-23
0.00190109 -0.00019219 2.30077e-23
0.00312576 -0.000125454 0
0.00312576 -0.000125454 0
0.00417642 -6.11319e-05 1.99834e-23
0.00417642 -6.11319e-05 1.99834e-23
0.00503769 -5.68605e-06 2.00983e-23
0.00503769 -5.68605e-06 2.00983e-23
0.00571484 3.64277e-05 0
0.00571484 3.64277e-05 0
0.00622809 6.53476e-05 1.91567e-23
0.00622809 6.53476e-05 1.91567e-23
0.00659478 8.37288e-05 1.92682e-23
0.00659478 8.37288e-05 1.92682e-23
0.00682477 9.34569e-05 1.93625e-23
0.00682477 9.34569e-05 1.93625e-23
0.00691362 9.88278e-05 1.94761e-23
0.00691362 9.88278e-05 1.94761e-23
0.00684659 0.000104265 0
0.00684659 0.000104265 0
0.00661979 0.00010144 0
0.00661979 0.00010144 0
0.00624435 8.14595e-05 -2.0624e-23
0.00624435 8.14595e-05 -2.0624e-23
0.00575217 4.87619e-05 -2.07467e-23
0.00575217 4.87619e-05 -2.07467e-23
0.00519011 9.75911e-06 0
0.00519011 9.75911e-06 0
0.00460994 -2.86367e-05 0
0.00460994 -2.86367e-05 0
0.00407097 -6.50577e-05 0
0.00407097 -6.50577e-05 0
0.00360296 -8.6047e-05 0
0.00360296 -8.6047e-05 0
0.00319205 -4.3612e-05 0
0.00319205 -4.3612e-05 0
0.00283742 3.85413e-05 -2.06121e-23