/*--------------------------------*- C++ -*----------------------------------*\
| =========                 |                                                 |
| \\      /  F ield         | OpenFOAM: The Open Source CFD Toolbox           |
|  \\    /   O peration     | Version:  1.4.2                                 |
|   \\  /    A nd           | Web:      http://www.openfoam.org               |
|    \\/     M anipulation  |                                                 |
\*---------------------------------------------------------------------------*/
FoamFile
{
    version     2.0;
    format      ascii;
    class       volScalarField;
    object      epsilon;
    location    "800";
}
// * * * * * * * * * * * * * * * * * * * * * * * * * * * * * * * * * * * * * //

dimensions      [0 2 -3 0 0 0 0];

internalField   nonuniform List<scalar> 
12225
(
443.026
353.452
290.586
245.345
212.188
187.594
169.245
155.572
145.485
138.21
133.183
129.985
128.301
127.881
128.529
130.083
132.408
135.67
60.1656
73.6155
79.568
83.695
87.7142
92.354
97.9687
104.74
112.767
122.1
132.759
144.738
157.999
172.479
188.082
204.669
221.997
240.13
26.2958
33.71
37.845
40.6833
42.9299
44.9526
46.964
49.0918
51.4158
53.9867
56.8366
59.9835
63.4335
67.1807
71.2043
75.4609
79.8607
84.2401
18.7355
22.7235
25.4806
27.3758
28.8178
30.0126
31.0724
32.0707
33.0568
34.0635
35.1123
36.2168
37.3842
38.6163
39.9093
41.2526
42.6262
43.986
16.1687
18.1634
19.9327
21.292
22.3446
23.1852
23.8877
24.5054
25.0723
25.6103
26.1342
26.6544
27.1775
27.7073
28.2451
28.7896
29.3369
29.8681
15.2354
16.0864
17.0484
17.9369
18.6892
19.3116
19.8309
20.2729
20.659
21.0059
21.3259
21.6276
21.9171
22.1984
22.4739
22.7446
23.0098
23.2589
14.8942
15.17
15.5864
16.0522
16.5062
16.9217
17.2896
17.6101
17.8892
18.1349
18.3542
18.5533
18.7368
18.9084
19.0708
19.2254
19.3723
19.5052
14.7876
14.838
14.9915
15.2092
15.4537
15.7009
15.9368
16.1543
16.351
16.5277
16.6862
16.8291
16.959
17.0782
17.1887
17.292
17.3884
17.4747
14.7441
14.6884
14.7003
14.7662
14.8675
14.9882
15.1163
15.244
15.3662
15.4805
15.586
15.6828
15.7713
15.8523
15.927
15.9961
16.0602
16.1177
14.7239
14.6134
14.5425
14.5091
14.5063
14.5261
14.5613
14.6058
14.655
14.7057
14.7558
14.8039
14.8493
14.8919
14.9314
14.9682
15.0024
15.0331
14.7149
14.579
14.4658
14.3758
14.3077
14.2585
14.2249
14.2034
14.191
14.1852
14.184
14.1858
14.1895
14.1943
14.1995
14.205
14.2103
14.215
14.7109
14.5642
14.4319
14.3142
14.2111
14.1218
14.0449
13.9791
13.9228
13.8744
13.8326
13.7963
13.7645
13.7363
13.711
13.6881
13.6673
13.6482
14.7089
14.5577
14.4176
14.2882
14.1691
14.0601
13.9605
13.8699
13.7873
13.7121
13.6436
13.5809
13.5235
13.4707
13.422
13.3769
13.335
13.2965
14.7076
14.5544
14.4112
14.2772
14.1517
14.0345
13.925
13.8227
13.7273
13.6382
13.555
13.4774
13.4048
13.3368
13.2731
13.2133
13.1573
13.1055
14.7067
14.5523
14.4076
14.2717
14.1439
14.0235
13.9101
13.8032
13.7025
13.6074
13.5177
13.433
13.353
13.2774
13.2059
13.1382
13.0743
13.0149
14.706
14.5507
14.4052
14.2684
14.1394
14.0178
13.9029
13.7943
13.6915
13.5941
13.5018
13.4143
13.3313
13.2524
13.1775
13.1063
13.0389
12.9759
14.7055
14.5497
14.4036
14.2662
14.1367
14.0144
13.8988
13.7894
13.6857
13.5874
13.494
13.4054
13.3211
13.241
13.1648
13.0922
13.0234
12.9591
14.7053
14.5494
14.403
14.2654
14.1356
14.013
13.8971
13.7873
13.6833
13.5846
13.4909
13.4019
13.3173
13.2369
13.1603
13.0875
13.0184
12.9539
14.7055
14.5497
14.4035
14.2659
14.1362
14.0138
13.8981
13.7886
13.685
13.5868
13.4937
13.4054
13.3216
13.2421
13.1666
13.0949
13.027
12.9637
14.706
14.5507
14.4051
14.2683
14.1396
14.0185
13.9045
13.7971
13.6959
13.6006
13.5107
13.426
13.346
13.2705
13.1992
13.1318
13.0684
13.0096
14.7068
14.5528
14.4093
14.2755
14.151
14.0353
13.9279
13.8284
13.7361
13.6504
13.5709
13.4969
13.4279
13.3636
13.3034
13.2471
13.1945
13.1461
14.7086
14.5589
14.4227
14.3001
14.1905
14.0931
14.0069
13.9303
13.8623
13.8016
13.747
13.6976
13.6526
13.6113
13.5731
13.5376
13.5046
13.4743
14.7142
14.5802
14.4708
14.3853
14.3209
14.2739
14.2405
14.2172
14.2011
14.1898
14.1815
14.175
14.1693
14.1638
14.1581
14.1518
14.1451
14.1383
14.7358
14.6588
14.6349
14.6534
14.7004
14.7639
14.8349
14.9068
14.9754
15.0383
15.0944
15.1431
15.1847
15.2195
15.2481
15.2713
15.2898
15.3046
14.8205
14.9298
15.138
15.3947
15.6602
15.9123
16.1399
16.3383
16.5072
16.6492
16.7675
16.8658
16.9471
17.0144
17.0699
17.1159
17.154
17.1858
15.1412
15.7855
16.517
17.2068
17.796
18.2812
18.6742
18.9897
19.2424
19.4453
19.6092
19.7427
19.8527
19.9444
20.0219
20.0885
20.1466
20.1979
16.3189
18.2995
19.9621
21.2351
22.1813
22.8822
23.4045
23.7998
24.1052
24.3458
24.5398
24.7003
24.8371
24.9574
25.0667
25.1688
25.2666
25.3617
20.7544
25.6375
28.6922
30.5982
31.8393
32.6632
33.2222
33.6186
33.9176
34.1614
34.3773
34.5833
34.7908
35.0072
35.2367
35.4817
35.7429
36.0193
43.9611
54.4815
58.7073
60.4207
60.9763
60.9915
60.8475
60.7575
60.7885
60.9697
61.3103
61.8085
62.4572
63.2461
64.1635
65.1971
66.332
67.5609
332.626
280.253
240.732
210.192
186.153
166.941
151.386
138.653
128.129
119.362
112.006
105.799
100.536
96.0549
92.2272
88.9495
86.1386
83.725
0.0111852
0.0140394
0.0196713
0.0262762
0.0331426
0.0399198
0.0465321
0.0531179
0.0599926
0.0676471
0.0763094
0.0859318
0.0965394
0.108097
0.120513
0.133782
0.148039
0.163591
0.180906
0.199508
0.219791
0.242076
0.266679
0.293921
0.324143
0.357699
0.394958
0.436302
0.482128
0.532847
0.588888
0.650698
0.718748
0.793535
0.875582
0.965444
1.06371
1.171
1.28799
1.41538
1.55392
1.70442
1.86774
2.04479
2.23654
2.44404
2.66842
2.91086
3.17268
3.45525
3.76011
4.0889
4.44343
4.82572
5.23799
5.68277
6.16294
6.68186
7.24347
7.85252
8.51481
9.23756
10.0299
10.9034
11.8731
12.9587
14.1857
15.588
17.2107
19.1146
21.3858
24.1523
27.6255
32.1981
38.5803
41.3629
44.1748
47.1361
50.2565
53.5423
56.9991
60.6329
64.449
68.4531
72.6504
77.0461
81.6453
86.4527
91.4731
96.7108
102.17
107.855
113.77
119.917
126.301
132.925
139.791
146.903
154.262
161.872
169.734
177.85
186.22
194.846
203.728
212.864
222.254
231.894
241.782
251.911
262.277
272.872
283.687
294.712
305.938
317.353
328.946
340.705
352.621
364.684
376.886
389.225
401.7
414.32
427.11
440.068
453.078
466.133
479.221
492.327
505.432
518.518
531.559
544.53
557.399
570.136
582.7
595.053
607.147
618.934
630.359
641.364
651.888
661.865
671.227
679.905
687.826
694.918
701.109
706.329
710.511
713.592
715.516
716.236
715.715
713.925
710.853
706.501
700.889
694.048
686.041
676.929
666.834
655.904
644.234
632.305
619.858
610.858
604.657
598.473
591.97
585.137
578.015
570.634
563.009
555.015
546.511
536.211
523.349
495.772
0.0332102
0.0289073
0.030258
0.0332311
0.0370119
0.0414645
0.0467173
0.0529633
0.0603331
0.0688264
0.0784678
0.089344
0.101618
0.115308
0.130275
0.146665
0.164638
0.184369
0.206031
0.229764
0.255771
0.284276
0.315514
0.349729
0.38717
0.428096
0.472772
0.52147
0.574475
0.632078
0.694588
0.762327
0.835633
0.914865
1.0004
1.09266
1.19205
1.29905
1.41414
1.53785
1.67074
1.81341
1.9665
2.13071
2.30677
2.49548
2.69769
2.91434
3.14643
3.39504
3.66137
3.94672
4.25254
4.58042
4.93215
5.30975
5.7155
6.15203
6.62235
7.12998
7.679
8.27421
8.92122
9.62653
10.3977
11.2432
12.1725
13.1954
14.3218
15.5603
16.9171
18.3942
19.9866
21.6742
23.3869
24.9017
26.4479
28.0656
29.7619
31.5401
33.4025
35.3515
37.3896
39.5189
41.7418
44.0604
46.4767
48.9929
51.6108
54.3323
57.159
60.0927
63.1348
66.2868
69.5501
72.9257
76.4148
80.0183
83.7369
87.5714
91.522
95.589
99.7723
104.071
108.486
113.015
117.656
122.409
127.271
132.239
137.31
142.48
147.747
153.106
158.554
164.085
169.696
175.384
181.144
186.975
192.874
198.84
204.873
210.975
217.149
223.421
229.726
236.054
242.398
248.749
255.098
261.437
267.754
274.035
280.269
286.438
292.527
298.516
304.385
310.113
315.674
321.045
326.197
331.103
335.734
340.058
344.046
347.666
350.887
353.68
356.015
357.866
359.209
360.022
360.29
359.999
359.144
357.722
355.74
353.209
350.153
346.596
342.577
338.146
333.32
328.153
322.516
317.266
312.577
307.95
303.28
298.562
293.815
289.06
284.31
279.553
274.762
269.69
264.228
257.876
0.0622056
0.0479528
0.0463781
0.048523
0.0526974
0.0584682
0.0656697
0.0743992
0.0844673
0.0957616
0.10839
0.122454
0.138041
0.155213
0.174023
0.194555
0.216919
0.241249
0.2677
0.296438
0.327651
0.361545
0.39834
0.438268
0.481572
0.528508
0.579338
0.634337
0.693794
0.758007
0.827291
0.901977
0.982414
1.06897
1.16205
1.26205
1.36943
1.48465
1.60823
1.7407
1.88262
2.03463
2.19736
2.37153
2.55788
2.75723
2.97042
3.1984
3.44217
3.7028
3.98147
4.27945
4.59814
4.93904
5.30381
5.6943
6.11253
6.56074
7.04143
7.55737
8.11163
8.7076
9.34894
10.0396
10.7837
11.5852
12.4479
13.3744
14.3662
15.422
16.5379
17.7064
18.9187
20.1675
21.4471
22.7477
24.0987
25.5113
26.9895
28.5357
30.1519
31.84
33.6019
35.4394
37.3541
39.3478
41.4222
43.5786
45.8185
48.1434
50.5544
53.0527
55.6394
58.3154
61.0816
63.9385
66.8868
69.9269
73.059
76.2832
79.5995
83.0074
86.5066
90.0963
93.7755
97.543
101.397
105.337
109.359
113.462
117.643
121.899
126.228
130.626
135.09
139.616
144.202
148.845
153.541
158.287
163.083
167.924
172.811
177.742
182.718
187.727
192.749
197.774
202.796
207.809
212.805
217.775
222.711
227.603
232.44
237.209
241.898
246.492
250.975
255.332
259.544
263.592
267.457
271.117
274.552
277.739
280.657
283.282
285.594
287.57
289.191
290.438
291.293
291.743
291.775
291.381
290.555
289.298
287.612
285.506
282.992
280.085
276.807
273.197
269.263
265.136
260.852
256.708
252.73
248.77
244.787
240.785
236.78
232.796
228.85
224.954
221.11
217.255
213.435
209.914
0.102924
0.0723183
0.0676161
0.0699689
0.0756034
0.083449
0.0930842
0.104057
0.116399
0.130169
0.145448
0.162315
0.180847
0.201113
0.223181
0.247136
0.273078
0.301132
0.331447
0.364192
0.399555
0.437744
0.478983
0.523512
0.571583
0.623464
0.679432
0.739779
0.804813
0.874852
0.950236
1.03132
1.11848
1.2121
1.31262
1.42048
1.53615
1.66013
1.79297
1.93522
2.08751
2.25047
2.42479
2.61122
2.81053
3.02357
3.25123
3.49447
3.75432
4.03187
4.3283
4.64487
4.98293
5.34394
5.72946
6.14117
6.58088
7.05053
7.55219
8.08807
8.66052
9.27198
9.92493
10.6219
11.3651
12.1568
12.9985
13.891
14.8344
15.8274
16.8676
17.9521
19.0787
20.2477
21.462
22.725
24.044
25.4234
26.8659
28.3736
29.9483
31.592
33.3064
35.0931
36.9539
38.8902
40.9035
42.9952
45.1667
47.419
49.7534
52.1706
54.6717
57.2572
59.9277
62.6836
65.5252
68.4525
71.4653
74.5636
77.7467
81.0141
84.365
87.7981
91.3124
94.9064
98.5783
102.326
106.148
110.042
114.004
118.033
122.124
126.276
130.485
134.747
139.059
143.417
147.818
152.258
156.735
161.245
165.785
170.352
174.937
179.528
184.114
188.688
193.244
197.776
202.276
206.738
211.152
215.511
219.804
224.022
228.152
232.182
236.099
239.889
243.537
247.027
250.343
253.467
256.38
259.067
261.506
263.682
265.574
267.167
268.443
269.387
269.985
270.226
270.1
269.6
268.722
267.465
265.832
263.828
261.464
258.75
255.706
252.367
248.794
245.06
241.217
237.399
233.623
229.845
226.052
222.255
218.473
214.728
211.042
207.432
203.918
200.501
197.276
194.596
0.153645
0.102492
0.0941653
0.0963986
0.103248
0.112713
0.123902
0.136648
0.150931
0.166784
0.184266
0.203444
0.224386
0.247163
0.27185
0.298536
0.327328
0.358353
0.391761
0.427725
0.466441
0.508121
0.552998
0.601321
0.653354
0.709375
0.769679
0.834573
0.904382
0.979448
1.06013
1.1468
1.23987
1.33975
1.4469
1.56179
1.68492
1.81682
1.95807
2.10927
2.27106
2.44411
2.62916
2.82698
3.03837
3.26423
3.50546
3.76306
4.03807
4.3316
4.64484
4.97903
5.33551
5.71567
6.12101
6.55309
7.01356
7.50414
8.02664
8.58291
9.17486
9.80442
10.4735
11.1839
11.9374
12.7353
13.5789
14.469
15.406
16.3897
17.4202
18.4972
19.6217
20.7954
22.0215
23.3034
24.6446
26.048
27.5159
29.0504
30.6535
32.3271
34.073
35.8929
37.7887
39.7619
41.814
43.9465
46.1606
48.4576
50.8384
53.304
55.855
58.4921
61.2155
64.0256
66.9223
69.9054
72.9746
76.1292
79.3686
82.6917
86.0974
89.5844
93.151
96.7956
100.516
104.31
108.176
112.111
116.111
120.175
124.298
128.477
132.708
136.987
141.311
145.674
150.072
154.5
158.954
163.43
167.924
172.426
176.924
181.408
185.871
190.308
194.71
199.073
203.39
207.653
211.855
215.987
220.042
224.009
227.877
231.636
235.275
238.78
242.138
245.335
248.357
251.188
253.812
256.214
258.377
260.286
261.924
263.276
264.329
265.068
265.481
265.559
265.293
264.677
263.708
262.384
260.708
258.684
256.322
253.627
250.641
247.403
243.958
240.358
236.654
232.918
229.172
225.41
221.636
217.866
214.12
210.422
206.795
203.264
199.855
196.599
193.603
191.16
0.21453
0.138029
0.124455
0.125854
0.132972
0.143141
0.155489
0.169672
0.185567
0.203147
0.222438
0.243489
0.266366
0.29114
0.317898
0.346737
0.377774
0.411145
0.447009
0.485546
0.526956
0.571461
0.619299
0.670726
0.726016
0.785456
0.849351
0.918022
0.991805
1.07106
1.15616
1.2475
1.3455
1.4506
1.56329
1.68405
1.81341
1.95194
2.10022
2.2589
2.42864
2.61015
2.80418
3.01153
3.23306
3.46965
3.72227
3.99191
4.27964
4.58658
4.91393
5.26293
5.6349
6.0312
6.45329
6.90265
7.38086
7.88951
8.43027
9.00483
9.61489
10.2622
10.9484
11.6751
12.444
13.2564
14.1137
15.0171
15.9675
16.9661
18.0138
19.1122
20.2628
21.4681
22.7309
24.054
25.4402
26.8921
28.412
30.0023
31.6649
33.4022
35.216
37.1084
39.0813
41.1365
43.2757
45.5003
47.8119
50.2117
52.7008
55.2801
57.9503
60.7119
63.5653
66.5103
69.547
72.675
75.8935
79.2017
82.5987
86.0831
89.6535
93.3081
97.0451
100.862
104.758
108.728
112.772
116.885
121.065
125.308
129.611
133.968
138.376
142.829
147.322
151.85
156.407
160.986
165.581
170.188
174.799
179.396
183.971
188.515
193.021
197.483
201.894
206.25
210.542
214.764
218.908
222.967
226.932
230.795
234.545
238.173
241.668
245.019
248.213
251.238
254.08
256.726
259.162
261.373
263.344
265.063
266.514
267.684
268.56
269.131
269.385
269.314
268.909
268.167
267.083
265.657
263.889
261.784
259.353
256.622
253.623
250.392
246.965
243.385
239.696
235.945
232.155
228.338
224.508
220.686
216.893
213.154
209.496
205.946
202.536
199.309
196.364
193.915
0.282803
0.177007
0.15679
0.155884
0.162449
0.173013
0.186257
0.201614
0.218837
0.237833
0.258591
0.281143
0.305548
0.331886
0.36025
0.390751
0.423519
0.458703
0.496471
0.537011
0.580533
0.627262
0.677442
0.731334
0.789214
0.851376
0.918129
0.989801
1.06674
1.1493
1.23789
1.3329
1.43477
1.54396
1.66095
1.78627
1.92047
2.06411
2.21783
2.38227
2.55813
2.74613
2.94707
3.16175
3.39105
3.63588
3.89723
4.17612
4.47363
4.79089
5.1291
5.48953
5.87348
6.28232
6.71749
7.18046
7.67277
8.19598
8.75173
9.34165
9.96742
10.6307
11.3333
12.0768
12.8628
13.6931
14.5693
15.4929
16.4656
17.4891
18.5652
19.6959
20.8836
22.1308
23.4403
24.8148
26.257
27.7697
29.3554
31.0166
32.7558
34.5754
36.4778
38.4653
40.54
42.704
44.9592
47.3075
49.7506
52.2897
54.9263
57.6612
60.4953
63.429
66.4627
69.5963
72.8296
76.1619
79.5925
83.1203
86.7438
90.4616
94.2718
98.1723
102.161
106.235
110.392
114.63
118.944
123.332
127.79
132.314
136.9
141.541
146.233
150.97
155.745
160.551
165.38
170.225
175.076
179.928
184.766
189.57
194.332
199.046
203.703
208.297
212.822
217.271
221.638
225.915
230.095
234.171
238.133
241.975
245.686
249.257
252.679
255.941
259.033
261.942
264.656
267.164
269.452
271.508
273.319
274.872
276.157
277.158
277.867
278.273
278.366
278.138
277.583
276.696
275.474
273.916
272.02
269.807
267.29
264.491
261.44
258.169
254.708
251.094
247.364
243.553
239.686
235.784
231.866
227.955
224.077
220.256
216.521
212.901
209.431
206.155
203.159
200.593
0.353165
0.216365
0.188038
0.184528
0.190435
0.201231
0.215167
0.231464
0.249758
0.26989
0.291811
0.315537
0.341121
0.368646
0.398216
0.429955
0.464007
0.500533
0.539713
0.581745
0.626842
0.675236
0.727173
0.782913
0.842733
0.906927
0.975804
1.04969
1.12895
1.21393
1.30503
1.40268
1.5073
1.61938
1.73941
1.86792
2.00547
2.15266
2.31012
2.47851
2.65856
2.85101
3.05665
3.27633
3.51094
3.7614
4.02873
4.31395
4.61818
4.94256
5.28831
5.6567
6.04906
6.46679
6.91133
7.38417
7.88689
8.42107
8.98838
9.5905
10.2292
10.9062
11.6234
12.3825
13.1856
14.0344
14.931
15.8773
16.8755
17.9279
19.0366
20.2043
21.4335
22.7272
24.0882
25.5195
27.0242
28.6051
30.2651
32.0072
33.8343
35.7491
37.7544
39.8529
42.0472
44.3397
46.7328
49.2285
51.8287
54.5353
57.3496
60.2729
63.306
66.4495
69.7037
73.0685
76.5436
80.1282
83.8213
87.6216
91.5275
95.5369
99.6477
103.858
108.164
112.563
117.053
121.63
126.291
131.031
135.847
140.734
145.687
150.699
155.764
160.875
166.023
171.199
176.394
181.597
186.799
191.99
197.14
202.237
207.273
212.24
217.13
221.936
226.651
231.268
235.779
240.179
244.458
248.608
252.623
256.493
260.211
263.766
267.151
270.356
273.37
276.184
278.786
281.165
283.311
285.212
286.859
288.24
289.344
290.162
290.685
290.904
290.812
290.401
289.666
288.604
287.209
285.492
283.456
281.117
278.494
275.607
272.482
269.144
265.622
261.946
258.147
254.257
250.3
246.3
242.281
238.267
234.284
230.361
226.524
222.805
219.238
215.864
212.755
210.017
0.419223
0.252206
0.216787
0.210945
0.216183
0.227081
0.241519
0.258532
0.277651
0.298655
0.321459
0.346061
0.372508
0.400886
0.431308
0.46391
0.498849
0.536298
0.576447
0.619501
0.66568
0.715213
0.768347
0.825339
0.886463
0.952007
1.02228
1.0976
1.17833
1.26482
1.35748
1.45672
1.56298
1.67675
1.79852
1.92883
2.06826
2.21741
2.37692
2.54748
2.7298
2.92465
3.13284
3.35522
3.59271
3.84625
4.11685
4.40559
4.71357
5.04198
5.39206
5.76512
6.16251
6.58567
7.03608
7.5153
8.02495
8.5667
9.14231
9.75357
10.4024
11.0906
11.8203
12.5935
13.4124
14.2792
15.1963
16.1659
17.1907
18.2733
19.4165
20.6233
21.8966
23.2397
24.6558
26.1484
27.7206
29.376
31.1179
32.9497
34.8747
36.8962
39.0175
41.2418
43.5721
46.0113
48.5622
51.2273
54.0088
56.909
59.9294
63.0715
66.3364
69.7247
73.2367
76.8724
80.6313
84.5125
88.5147
92.6364
96.8755
101.23
105.697
110.273
114.956
119.742
124.628
129.61
134.684
139.846
145.091
150.413
155.807
161.266
166.782
172.347
177.949
183.578
189.222
194.867
200.501
206.105
211.643
217.107
222.488
227.778
232.967
238.049
243.014
247.856
252.567
257.138
261.561
265.828
269.931
273.861
277.61
281.17
284.532
287.687
290.627
293.342
295.823
298.06
300.043
301.764
303.216
304.391
305.278
305.871
306.166
306.152
305.827
305.185
304.222
302.941
301.344
299.44
297.238
294.754
292.005
289.009
285.786
282.361
278.757
275
271.118
267.138
263.085
258.983
254.857
250.734
246.64
242.602
238.649
234.812
231.122
227.618
224.358
221.423
0.478971
0.284595
0.242777
0.234764
0.239286
0.25014
0.264885
0.282388
0.302085
0.323701
0.347115
0.372309
0.399324
0.428247
0.459199
0.492326
0.527795
0.56579
0.606508
0.650158
0.696959
0.74714
0.800941
0.858615
0.920427
0.98666
1.05761
1.13361
1.21498
1.3021
1.39535
1.49516
1.60197
1.71625
1.83851
1.9693
2.10918
2.25877
2.41871
2.5897
2.77247
2.96779
3.17648
3.39941
3.6375
3.89173
4.16311
4.45275
4.76178
5.09141
5.44293
5.81768
6.21707
6.64259
7.0958
7.57833
8.09191
8.63832
9.21945
9.83724
10.4938
11.1911
11.9316
12.7175
13.5513
14.4356
15.373
16.3664
17.4187
18.533
19.7126
20.9609
22.2814
23.6777
25.1536
26.713
28.3596
30.0974
31.9304
33.8624
35.8975
38.0394
40.292
42.6591
45.1443
47.751
50.4824
53.3415
56.3312
59.4537
62.7112
66.1053
69.6373
73.3079
77.1175
81.0657
85.1521
89.3756
93.7346
98.2272
102.851
107.603
112.481
117.48
122.598
127.83
133.173
138.621
144.171
149.818
155.557
161.382
167.286
173.262
179.3
185.39
191.52
197.676
203.843
210.006
216.149
222.222
228.211
234.103
239.888
245.557
251.101
256.509
261.773
266.885
271.836
276.616
281.217
285.629
289.842
293.849
297.641
301.21
304.548
307.647
310.498
313.095
315.427
317.487
319.267
320.762
321.969
322.881
323.49
323.794
323.791
323.476
322.85
321.912
320.666
319.117
317.272
315.143
312.74
310.076
307.168
304.032
300.685
297.147
293.439
289.584
285.605
281.526
277.371
273.163
268.929
264.693
260.482
256.324
252.245
248.276
244.446
240.791
237.357
234.214
0.532355
0.3135
0.265871
0.25581
0.259552
0.270208
0.285055
0.302816
0.322843
0.344807
0.368562
0.39407
0.421368
0.450546
0.481728
0.51507
0.550747
0.588949
0.629875
0.673733
0.720739
0.771114
0.82509
0.882911
0.944831
1.01112
1.08208
1.15801
1.23924
1.32615
1.4191
1.51851
1.62483
1.73853
1.86011
1.99011
2.12912
2.27775
2.43664
2.60649
2.78805
2.98209
3.18945
3.411
3.64769
3.9005
4.17049
4.45877
4.76653
5.09501
5.44555
5.81954
6.21848
6.64392
7.09753
7.58106
8.09635
8.64534
9.23009
9.85276
10.5156
11.2211
11.9717
12.77
13.619
14.5215
15.4806
16.4996
17.5821
18.7314
19.9516
21.2464
22.6199
24.0765
25.6204
27.256
28.9879
30.8205
32.7586
34.8066
36.9692
39.2509
41.6562
44.1895
46.8548
49.6564
52.5978
55.6827
58.9142
62.2952
65.8279
69.5144
73.3559
77.3533
81.5068
85.8159
90.2796
94.8968
99.6653
104.583
109.647
114.853
120.199
125.68
131.291
137.028
142.887
148.862
154.949
161.143
167.437
173.825
180.302
186.857
193.481
200.161
206.884
213.632
220.387
227.131
233.828
240.424
246.911
253.276
259.51
265.601
271.537
277.309
282.906
288.319
293.538
298.552
303.351
307.922
312.256
316.344
320.178
323.749
327.048
330.07
332.805
335.25
337.392
339.224
340.744
341.95
342.84
343.413
343.662
343.593
343.207
342.508
341.502
340.195
338.597
336.716
334.563
332.15
329.491
326.597
323.482
320.163
316.653
312.969
309.13
305.153
301.06
296.87
292.605
288.287
283.94
279.588
275.257
270.973
266.763
262.653
258.672
254.852
251.231
247.877
0.578791
0.338802
0.285996
0.274027
0.276938
0.28725
0.302001
0.31979
0.339897
0.36195
0.385777
0.411328
0.438635
0.467789
0.498923
0.532198
0.567794
0.6059
0.646714
0.690437
0.737274
0.787436
0.841142
0.898624
0.960124
1.0259
1.09624
1.17144
1.25182
1.33774
1.42957
1.52771
1.63262
1.74474
1.8646
1.99273
2.1297
2.27614
2.4327
2.60007
2.77901
2.97032
3.17482
3.39343
3.62709
3.87684
4.14374
4.42896
4.73372
5.05934
5.40721
5.77882
6.17573
6.59965
7.05234
7.53571
8.05178
8.6027
9.19074
9.81832
10.488
11.2025
11.9648
12.7777
13.6447
14.5691
15.5545
16.6046
17.7236
18.9157
20.1851
21.5365
22.9748
24.5047
26.1314
27.86
29.6958
31.6442
33.7103
35.8995
38.2171
40.6683
43.2584
45.9923
48.8748
51.9106
55.1038
58.4586
61.9783
65.6661
69.5248
73.5563
77.7621
82.1429
86.6984
91.4276
96.3291
101.401
106.641
112.046
117.612
123.336
129.212
135.236
141.402
147.706
154.141
160.702
167.383
174.18
181.085
188.093
195.196
202.385
209.648
216.971
224.338
231.73
239.125
246.496
253.76
260.904
267.914
274.777
281.482
288.014
294.362
300.514
306.458
312.183
317.678
322.933
327.932
332.66
337.109
341.267
345.126
348.676
351.91
354.819
357.397
359.64
361.536
363.077
364.267
365.106
365.595
365.738
365.538
365.005
364.146
362.973
361.499
359.737
357.701
355.406
352.865
350.092
347.102
343.909
340.526
336.966
333.243
329.371
325.363
321.235
317.004
312.686
308.299
303.863
299.398
294.927
290.473
286.06
281.714
277.459
273.322
269.33
265.517
261.952
0.618268
0.360543
0.303198
0.289478
0.291527
0.301371
0.315846
0.333449
0.353401
0.375295
0.398938
0.424272
0.451328
0.480204
0.511038
0.543997
0.57926
0.617012
0.657442
0.700736
0.747084
0.796684
0.849738
0.906464
0.967091
1.03187
1.10106
1.17496
1.25388
1.33816
1.42818
1.52433
1.62704
1.73679
1.85408
1.97945
2.11348
2.25678
2.41003
2.57392
2.74923
2.93677
3.13738
3.35201
3.58164
3.82732
4.09019
4.37146
4.67243
4.9945
5.33916
5.70801
6.10276
6.52525
6.97745
7.46146
7.97954
8.5341
9.12773
9.76318
10.4434
11.1715
11.9509
12.7851
13.6778
14.6331
15.6551
16.7484
17.9176
19.1676
20.5037
21.9311
23.4557
25.083
26.8191
28.6701
30.6421
32.7413
34.9738
37.3454
39.8623
42.5304
45.3556
48.3434
51.4993
54.8283
58.3349
62.0235
65.8977
69.9607
74.2154
78.6637
83.3071
88.1459
93.1793
98.4044
103.819
109.42
115.206
121.171
127.311
133.622
140.098
146.732
153.518
160.449
167.519
174.722
182.052
189.503
197.067
204.739
212.51
220.373
228.315
236.315
244.357
252.423
260.481
268.448
276.28
283.966
291.493
298.846
306.011
312.974
319.72
326.238
332.512
338.531
344.281
349.756
354.932
359.79
364.321
368.516
372.362
375.85
378.97
381.715
384.077
386.05
387.628
388.808
389.591
389.983
389.988
389.616
388.877
387.787
386.361
384.618
382.578
380.262
377.69
374.882
371.857
368.631
365.223
361.648
357.92
354.051
350.054
345.94
341.719
337.404
333.006
328.538
324.014
319.448
314.859
310.264
305.684
301.142
296.659
292.258
287.962
283.797
279.793
276.021
0.651362
0.378953
0.317649
0.302338
0.303523
0.312808
0.326864
0.344103
0.363698
0.385215
0.408448
0.433335
0.459913
0.48829
0.518614
0.551054
0.585786
0.622983
0.662815
0.705452
0.751065
0.799831
0.851939
0.907589
0.966996
1.0304
1.09804
1.17022
1.24723
1.3294
1.41711
1.51076
1.61076
1.7176
1.83178
1.95385
2.08439
2.22404
2.37347
2.53343
2.70468
2.88808
3.08452
3.29497
3.52048
3.76217
4.02124
4.299
4.59687
4.91636
5.25913
5.62695
6.02174
6.44557
6.90065
7.3894
7.91441
8.47846
9.08458
9.73599
10.4362
11.1888
11.998
12.8678
13.8029
14.8078
15.8877
17.0477
18.2935
19.6311
21.0664
22.606
24.2564
26.0245
27.9173
29.9421
32.1061
34.4165
36.88
39.5029
42.2919
45.2536
48.3943
51.72
55.2365
58.9488
62.8616
66.9788
71.304
75.8401
80.5893
85.5533
90.7333
96.1298
101.741
107.559
113.58
119.802
126.221
132.831
139.627
146.603
153.751
161.063
168.533
176.151
183.911
191.804
199.826
207.969
216.225
224.588
233.049
241.603
250.237
258.918
267.636
276.363
285.012
293.517
301.866
310.043
318.033
325.821
333.392
340.73
347.818
354.643
361.189
367.441
373.384
379.005
384.285
389.206
393.756
397.92
401.687
405.044
407.981
410.49
412.563
414.194
415.38
416.12
416.418
416.281
415.719
414.746
413.379
411.64
409.551
407.139
404.431
401.457
398.244
394.819
391.206
387.428
383.505
379.457
375.3
371.045
366.706
362.29
357.806
353.261
348.663
344.021
339.341
334.634
329.913
325.191
320.485
315.814
311.196
306.651
302.2
297.867
293.674
289.701
0.679148
0.394424
0.329647
0.312907
0.313264
0.321955
0.335511
0.352271
0.37137
0.392352
0.415004
0.439268
0.465197
0.492915
0.522586
0.55438
0.588461
0.624983
0.664093
0.705937
0.750668
0.798443
0.849436
0.903832
0.961833
1.02366
1.08957
1.15982
1.23471
1.31459
1.39981
1.49077
1.58793
1.69176
1.80277
1.92154
2.04867
2.18483
2.33072
2.48713
2.65488
2.83488
3.02809
3.23557
3.45846
3.69799
3.95551
4.23247
4.53048
4.85127
5.19674
5.56897
5.97018
6.40282
6.86951
7.37311
7.91673
8.50374
9.1378
9.82286
10.5632
11.3634
12.2283
13.1633
14.174
15.266
16.4453
17.7183
19.0918
20.5731
22.1693
23.8883
25.7377
27.7258
29.8607
32.151
34.6051
37.2318
40.0384
43.0293
46.2119
49.5932
53.1796
56.977
60.9907
65.2252
69.6842
74.3708
79.2873
84.4353
89.8159
95.4297
101.277
107.359
113.679
120.207
126.948
133.895
141.045
148.391
155.926
163.643
171.533
179.586
187.792
196.142
204.628
213.241
221.975
230.824
239.778
248.828
257.963
267.173
276.445
285.753
295.079
304.323
313.419
322.352
331.103
339.658
347.998
356.108
363.971
371.569
378.886
385.904
392.607
398.978
405.001
410.658
415.933
420.807
425.265
429.291
432.871
435.993
438.644
440.816
442.502
443.697
444.398
444.608
444.33
443.576
442.359
440.698
438.615
436.137
433.294
430.118
426.647
422.916
418.963
414.823
410.525
406.097
401.567
396.957
392.286
387.57
382.819
378.041
373.241
368.424
363.593
358.75
353.898
349.038
344.179
339.328
334.498
329.702
324.955
320.275
315.676
311.182
306.81
302.643
0.703156
0.407475
0.339612
0.321635
0.321266
0.329417
0.342491
0.358766
0.37734
0.397736
0.419734
0.443291
0.468491
0.495494
0.524485
0.555627
0.589062
0.624917
0.663311
0.704371
0.74823
0.795034
0.844943
0.898133
0.954797
1.01515
1.07944
1.14792
1.22092
1.29875
1.38181
1.47052
1.56535
1.66679
1.77542
1.89183
2.01668
2.15071
2.29469
2.44948
2.61601
2.79531
2.98848
3.19673
3.42139
3.6639
3.92585
4.20898
4.51523
4.84672
5.20579
5.59503
6.01726
6.47558
6.9733
7.51402
8.10171
8.74074
9.43583
10.1921
11.0152
11.9109
12.8859
13.9471
15.1019
16.3577
17.7212
19.2004
20.8039
22.5403
24.4186
26.4478
28.6369
30.9951
33.5315
36.2555
39.1768
42.3068
45.6552
49.2146
52.9954
57.0043
61.2467
65.7273
70.4493
75.4152
80.6265
86.0838
91.787
97.7351
103.927
110.36
117.032
123.941
131.08
138.437
146.004
153.774
161.74
169.895
178.23
186.738
195.409
204.23
213.189
222.276
231.479
240.792
250.209
259.726
269.329
279.002
288.733
298.51
308.308
318.096
327.761
337.284
346.639
355.808
364.772
373.513
382.014
390.256
398.223
405.895
413.254
420.281
426.959
433.269
439.193
444.713
449.81
454.467
458.665
462.389
465.624
468.355
470.571
472.264
473.426
474.053
474.146
473.707
472.743
471.267
469.297
466.855
463.967
460.665
456.984
452.964
448.647
444.078
439.306
434.373
429.312
424.158
418.944
413.699
408.447
403.203
397.982
392.79
387.63
382.503
377.41
372.348
367.309
362.29
357.291
352.315
347.366
342.454
337.59
332.786
328.053
323.41
318.873
314.526
0.72477
0.418715
0.348157
0.32922
0.328349
0.336157
0.348932
0.364892
0.383093
0.403031
0.424468
0.447382
0.471929
0.498347
0.526838
0.557536
0.590541
0.625945
0.66385
0.704371
0.747637
0.793793
0.843
0.895433
0.951286
1.01078
1.07415
1.1417
1.21374
1.29064
1.37282
1.46076
1.55499
1.65607
1.76466
1.88145
2.00721
2.14279
2.28913
2.44726
2.61832
2.80357
3.00442
3.22241
3.45926
3.71684
3.99722
4.30271
4.63593
4.99975
5.39742
5.83256
6.3092
6.83181
7.40514
8.03398
8.72405
9.48162
10.3135
11.2269
12.2297
13.3304
14.5379
15.8621
17.3141
18.9061
20.6401
22.5282
24.5812
26.8095
29.2229
31.831
34.643
37.6677
40.9134
44.3883
48.1
52.0554
56.2594
60.7118
65.4155
70.3727
75.5851
81.0533
86.7769
92.7544
98.9829
105.459
112.178
119.137
126.329
133.751
141.397
149.261
157.336
165.609
174.071
182.713
191.523
200.496
209.626
218.908
228.326
237.867
247.516
257.26
267.087
276.988
286.966
297.022
307.132
317.262
327.392
337.506
347.504
357.32
366.959
376.419
385.688
394.749
403.586
412.179
420.512
428.566
436.322
443.76
450.862
457.606
463.974
469.945
475.501
480.623
485.291
489.486
493.19
496.387
499.061
501.197
502.786
503.818
504.287
504.193
503.534
502.318
500.553
498.255
495.445
492.147
488.392
484.216
479.657
474.76
469.572
464.142
458.52
452.756
446.892
440.972
435.036
429.117
423.244
417.438
411.713
406.076
400.53
395.073
389.704
384.415
379.188
374.013
368.882
363.79
358.738
353.726
348.764
343.855
339.008
334.237
329.553
325.045
0.74702
0.429018
0.356251
0.336839
0.33591
0.343816
0.356739
0.372835
0.391119
0.411034
0.43229
0.454889
0.479193
0.505577
0.534173
0.56502
0.598172
0.633712
0.67175
0.712424
0.755891
0.802323
0.851907
0.904838