/*--------------------------------*- C++ -*----------------------------------*\
| =========                 |                                                 |
| \\      /  F ield         | OpenFOAM: The Open Source CFD Toolbox           |
|  \\    /   O peration     | Version:  1.4.2                                 |
|   \\  /    A nd           | Web:      http://www.openfoam.org               |
|    \\/     M anipulation  |                                                 |
\*---------------------------------------------------------------------------*/
FoamFile
{
    version     2.0;
    format      ascii;
    class       volScalarField;
    object      k;
    location    "800";
}
// * * * * * * * * * * * * * * * * * * * * * * * * * * * * * * * * * * * * * //

dimensions      [0 2 -2 0 0 0 0];

internalField   nonuniform List<scalar> 
12225
(
0.315115
0.271063
0.237885
0.212505
0.1929
0.17769
0.165905
0.156845
0.14999
0.144947
0.141411
0.139138
0.137933
0.137632
0.138097
0.139208
0.140862
0.143166
0.365357
0.357609
0.353827
0.353686
0.356737
0.362618
0.371004
0.3816
0.394137
0.408365
0.424048
0.440955
0.458865
0.477557
0.496816
0.51642
0.536065
0.556343
0.370187
0.364636
0.360183
0.356898
0.354768
0.35374
0.353744
0.354696
0.356512
0.359109
0.362405
0.366319
0.370769
0.37567
0.380922
0.386401
0.391919
0.397331
0.371735
0.367478
0.363488
0.359996
0.357015
0.354545
0.352574
0.351071
0.350002
0.349327
0.349007
0.349003
0.349274
0.34978
0.350475
0.351307
0.352213
0.353156
0.372438
0.36905
0.36559
0.362328
0.359334
0.35663
0.354215
0.352079
0.350207
0.348579
0.347175
0.345975
0.344956
0.344095
0.343369
0.342752
0.342221
0.341763
0.37275
0.369943
0.366992
0.364059
0.36125
0.35861
0.356154
0.353885
0.351797
0.349883
0.34813
0.346528
0.345062
0.343721
0.342491
0.341358
0.340313
0.339357
0.372878
0.37041
0.367854
0.365269
0.362722
0.360258
0.357904
0.355675
0.353577
0.351609
0.349766
0.348042
0.346429
0.34492
0.343506
0.34218
0.340936
0.339788
0.372918
0.370599
0.368258
0.365906
0.363576
0.361295
0.359086
0.356964
0.354939
0.353014
0.35119
0.349465
0.347835
0.346295
0.34484
0.343464
0.342164
0.340958
0.372932
0.370688
0.368473
0.366277
0.364109
0.361983
0.359911
0.357906
0.355975
0.354124
0.352356
0.35067
0.349066
0.34754
0.34609
0.344711
0.343403
0.342182
0.372937
0.37073
0.368595
0.36651
0.364471
0.362481
0.360543
0.358662
0.356843
0.355091
0.353406
0.351791
0.350245
0.348767
0.347355
0.346006
0.344721
0.343517
0.372937
0.370746
0.368652
0.366634
0.364684
0.362795
0.360966
0.359196
0.357485
0.355834
0.354244
0.352715
0.351246
0.349836
0.348484
0.347189
0.345951
0.344788
0.372936
0.370748
0.36867
0.366685
0.364785
0.36296
0.361206
0.359517
0.357891
0.356327
0.354821
0.353373
0.351982
0.350645
0.34936
0.348128
0.346948
0.345839
0.372936
0.370745
0.36867
0.366698
0.364819
0.363026
0.361312
0.359672
0.358101
0.356595
0.35515
0.353765
0.352435
0.351159
0.349934
0.348759
0.347635
0.346578
0.372937
0.370743
0.368665
0.366694
0.36482
0.363038
0.361341
0.359723
0.358178
0.356703
0.355293
0.353944
0.352654
0.351418
0.350234
0.3491
0.348017
0.347001
0.372939
0.370742
0.368662
0.366687
0.364813
0.363031
0.361337
0.359724
0.358188
0.356724
0.355328
0.353995
0.352722
0.351505
0.350342
0.349231
0.348171
0.347179
0.372943
0.370744
0.368661
0.366683
0.364805
0.363021
0.361325
0.359711
0.358175
0.356712
0.355317
0.353987
0.352719
0.351508
0.350351
0.349247
0.348197
0.347214
0.372948
0.370749
0.368663
0.366683
0.364802
0.363015
0.361315
0.359699
0.358159
0.356694
0.355297
0.353965
0.352695
0.351483
0.350326
0.349222
0.348172
0.347191
0.372951
0.370752
0.368664
0.366683
0.3648
0.363011
0.361309
0.35969
0.358148
0.356679
0.355279
0.353944
0.35267
0.351455
0.350295
0.349188
0.348135
0.347151
0.372947
0.370748
0.368661
0.366679
0.364796
0.363006
0.361303
0.359681
0.358136
0.356663
0.355259
0.353918
0.352638
0.351416
0.350248
0.349133
0.348072
0.347079
0.372942
0.370743
0.368656
0.366675
0.36479
0.362997
0.361289
0.359661
0.358108
0.356624
0.355207
0.353852
0.352555
0.351315
0.350128
0.348992
0.347909
0.346894
0.372938
0.370738
0.368651
0.366666
0.364774
0.362969
0.361244
0.359594
0.358014
0.3565
0.355048
0.353654
0.352318
0.351034
0.349803
0.348621
0.347492
0.346432
0.372934
0.370732
0.368636
0.366632
0.364712
0.362869
0.361095
0.359387
0.357741
0.356155
0.354627
0.353155
0.351738
0.350374
0.349061
0.347801
0.346594
0.345459
0.372927
0.37071
0.36858
0.36652
0.364521
0.36258
0.360694
0.358864
0.357089
0.355371
0.353711
0.35211
0.350567
0.349082
0.347655
0.346286
0.344977
0.343749
0.37291
0.370639
0.368408
0.366204
0.36403
0.361894
0.359802
0.357765
0.355788
0.353878
0.352037
0.350268
0.348572
0.346948
0.345396
0.343914
0.342505
0.341187
0.372856
0.370429
0.367957
0.365456
0.362964
0.36051
0.358116
0.3558
0.353574
0.351443
0.34941
0.347475
0.345636
0.343891
0.342235
0.340667
0.339185
0.337808
0.372693
0.369884
0.366925
0.36392
0.360959
0.358089
0.355338
0.35272
0.350244
0.347909
0.345714
0.343652
0.34172
0.33991
0.338216
0.336631
0.335151
0.333789
0.37223
0.368599
0.364817
0.361096
0.357537
0.354185
0.351059
0.348165
0.345497
0.343047
0.340806
0.33876
0.336897
0.335202
0.333663
0.332268
0.331005
0.329876
0.370946
0.365685
0.36055
0.355801
0.35149
0.347644
0.344266
0.341333
0.338816
0.336679
0.334887
0.333407
0.332206
0.331256
0.330529
0.33
0.329646
0.329455
0.366354
0.35712
0.349251
0.3429
0.337988
0.334392
0.331962
0.330545
0.330001
0.330208
0.331059
0.332461
0.334335
0.33661
0.339225
0.342127
0.345262
0.348624
0.329178
0.293648
0.265348
0.242403
0.223549
0.20789
0.194768
0.183687
0.174271
0.166227
0.159326
0.153385
0.148254
0.143816
0.139969
0.136633
0.133739
0.131229
0.000604087
0.000735838
0.000920926
0.00111662
0.00130316
0.0014748
0.00163285
0.00178266
0.00193217
0.00209156
0.00226507
0.00245036
0.00264684
0.00285312
0.00306681
0.00328711
0.00351553
0.00375594
0.00401582
0.00428566
0.00457037
0.00487326
0.00519706
0.00554422
0.00591708
0.00631778
0.00674833
0.00721053
0.00770609
0.00823654
0.00880336
0.00940795
0.0100517
0.010736
0.0114621
0.0122317
0.013046
0.0139066
0.0148152
0.0157734
0.0167829
0.0178456
0.0189635
0.0201386
0.021373
0.022669
0.0240291
0.0254559
0.026952
0.0285205
0.0301645
0.0318876
0.0336936
0.0355869
0.0375722
0.0396552
0.0418422
0.0441411
0.0465608
0.0491127
0.0518104
0.0546711
0.0577165
0.0609737
0.0644777
0.0682736
0.0724203
0.0769968
0.082112
0.0879211
0.0946539
0.102659
0.112472
0.124895
0.141075
0.147745
0.154292
0.161029
0.167972
0.175124
0.182485
0.190057
0.197842
0.20584
0.214051
0.222474
0.23111
0.239956
0.249012
0.258276
0.267745
0.277419
0.287294
0.297367
0.307635
0.318096
0.328746
0.339581
0.350598
0.361793
0.373162
0.384699
0.396402
0.408263
0.420277
0.432439
0.444739
0.457171
0.469725
0.48239
0.495156
0.50801
0.520939
0.53393
0.546968
0.56004
0.573131
0.586228
0.59932
0.612397
0.625452
0.638482
0.651488
0.664477
0.677473
0.690497
0.703414
0.716221
0.728909
0.741467
0.753883
0.766141
0.778224
0.79011
0.801778
0.813203
0.824356
0.835206
0.845719
0.855859
0.865583
0.874849
0.88361
0.891818
0.899424
0.906375
0.912618
0.918099
0.922765
0.926562
0.929442
0.931356
0.93226
0.932118
0.930899
0.928579
0.925145
0.920593
0.914933
0.908185
0.900388
0.891585
0.88188
0.871351
0.8601
0.848566
0.836438
0.826646
0.819997
0.81347
0.806645
0.799492
0.79204
0.784316
0.776332
0.767971
0.7591
0.748513
0.73548
0.70828
0.000785613
0.00122212
0.00168087
0.00209683
0.00247616
0.00283279
0.00318051
0.00353279
0.0039028
0.00428695
0.00468393
0.00509889
0.00553792
0.00600172
0.00648658
0.00699642
0.00753371
0.0081003
0.0086979
0.00932798
0.00999298
0.0106957
0.0114391
0.0122263
0.0130602
0.0139439
0.0148802
0.0158717
0.0169211
0.018031
0.0192037
0.0204417
0.0217475
0.0231237
0.0245727
0.0260972
0.0277001
0.0293841
0.0311523
0.0330079
0.0349542
0.0369946
0.039133
0.0413729
0.0437187
0.0461744
0.0487446
0.051434
0.0542476
0.0571906
0.0602688
0.0634882
0.0668551
0.0703766
0.0740601
0.0779137
0.0819463
0.0861678
0.0905891
0.0952225
0.100082
0.105183
0.110543
0.116184
0.122126
0.128396
0.135019
0.142022
0.149429
0.157261
0.165532
0.174249
0.183411
0.192969
0.20271
0.212053
0.221596
0.231442
0.241613
0.252118
0.262963
0.274151
0.285687
0.297574
0.309815
0.322412
0.335366
0.34868
0.362353
0.376386
0.390778
0.40553
0.420639
0.436104
0.451924
0.468096
0.484619
0.501489
0.518704
0.536262
0.554159
0.572392
0.590958
0.609852
0.629072
0.648611
0.668465
0.688626
0.709087
0.729839
0.750873
0.772177
0.793738
0.815542
0.837575
0.859822
0.882268
0.904899
0.927701
0.950663
0.973777
0.997036
1.02044
1.04398
1.06767
1.09131
1.11496
1.13863
1.16233
1.18603
1.20972
1.23339
1.25701
1.28056
1.304
1.32729
1.35039
1.37325
1.39581
1.418
1.43976
1.461
1.48163
1.50155
1.52067
1.53886
1.55601
1.572
1.58669
1.59996
1.61168
1.62171
1.62994
1.63623
1.64049
1.6426
1.6425
1.6401
1.63538
1.6283
1.61889
1.60717
1.59327
1.57735
1.55969
1.5409
1.52246
1.50522
1.48825
1.47054
1.45202
1.4328
1.41306
1.39295
1.37257
1.35196
1.33102
1.30923
1.28606
1.25738
0.00119353
0.00192218
0.00259781
0.00320565
0.00377881
0.00433614
0.00489465
0.00547114
0.00605594
0.00664563
0.00724796
0.00786885
0.0085125
0.00918137
0.00987687
0.0106007
0.0113548
0.0121415
0.0129637
0.0138246
0.0147275
0.0156762
0.0166746
0.0177267
0.0188364
0.0200076
0.021244
0.0225493
0.023927
0.0253806
0.0269134
0.0285287
0.0302301
0.0320209
0.0339047
0.0358852
0.0379661
0.0401513
0.042445
0.0448515
0.0473753
0.0500211
0.0527938
0.0556986
0.058741
0.0619267
0.0652617
0.0687522
0.072405
0.0762271
0.0802258
0.084409
0.0887851
0.0933628
0.0981515
0.103161
0.108403
0.113888
0.119628
0.125637
0.131929
0.138519
0.145424
0.152661
0.160247
0.1682
0.176537
0.185271
0.194411
0.203958
0.213904
0.224233
0.234928
0.245966
0.25731
0.268938
0.280938
0.293342
0.306164
0.319413
0.333096
0.34722
0.36179
0.376811
0.392286
0.408219
0.424613
0.44147
0.45879
0.476574
0.494821
0.513531
0.532703
0.552332
0.572418
0.592956
0.613943
0.635375
0.657246
0.679553
0.702289
0.725451
0.749031
0.773024
0.797424
0.822223
0.847414
0.872988
0.898935
0.925244
0.951903
0.978898
1.00621
1.03383
1.06174
1.08991
1.11833
1.14698
1.17584
1.20489
1.23412
1.26353
1.2931
1.32283
1.35259
1.38234
1.41209
1.44186
1.47163
1.50139
1.53114
1.56084
1.59048
1.62002
1.64942
1.67865
1.70765
1.73637
1.76474
1.79268
1.82011
1.84693
1.87304
1.89832
1.92264
1.94587
1.96786
1.98847
2.00754
2.02491
2.04041
2.05388
2.06517
2.07412
2.08058
2.08445
2.0856
2.08395
2.07946
2.07209
2.06187
2.0488
2.03306
2.01468
1.99378
1.97089
1.9469
1.9223
1.89716
1.87117
1.84443
1.81712
1.78946
1.76163
1.73379
1.70604
1.67844
1.65092
1.62359
1.59666
0.00166994
0.00271283
0.00364497
0.00450285
0.00531494
0.00610155
0.00687571
0.00762939
0.00837528
0.00912339
0.00988222
0.0106583
0.0114566
0.0122805
0.0131328
0.0140157
0.0149318
0.0158842
0.0168765
0.0179125
0.0189966
0.0201332
0.0213269
0.0225824
0.0239045
0.0252976
0.0267664
0.0283152
0.0299484
0.0316701
0.0334847
0.0353963
0.0374093
0.039528
0.041757
0.0441008
0.0465642
0.0491523
0.0518702
0.0547234
0.0577175
0.0608585
0.0641525
0.0676061
0.071226
0.0750194
0.0789938
0.083157
0.0875171
0.0920829
0.0968633
0.101868
0.107107
0.11259
0.11833
0.124336
0.130623
0.137201
0.144086
0.15129
0.158829
0.166717
0.17497
0.183602
0.19263
0.202067
0.211926
0.222218
0.232947
0.244117
0.255725
0.267767
0.280238
0.29314
0.306479
0.320269
0.334537
0.3493
0.36457
0.380357
0.396671
0.413518
0.430906
0.448842
0.46733
0.486374
0.505978
0.526144
0.546874
0.568166
0.590021
0.612436
0.635408
0.658933
0.683006
0.707621
0.732771
0.75845
0.784648
0.811357
0.838568
0.866272
0.894459
0.923119
0.95224
0.981813
1.01182
1.04226
1.07312
1.10437
1.136
1.168
1.20034
1.23301
1.26597
1.29922
1.33271
1.36642
1.40034
1.43442
1.46866
1.50303
1.53752
1.5721
1.60657
1.64098
1.67533
1.70962
1.74384
1.77798
1.81203
1.84596
1.87975
1.91337
1.94678
1.97994
2.01281
2.04531
2.07739
2.10896
2.13994
2.17022
2.19969
2.22822
2.25569
2.28194
2.30681
2.33015
2.35177
2.3715
2.38914
2.40452
2.41745
2.42776
2.43527
2.43985
2.44136
2.43971
2.43481
2.42662
2.41515
2.40042
2.38245
2.36126
2.3372
2.31076
2.28268
2.25334
2.22297
2.1916
2.15944
2.12672
2.0937
2.06063
2.02774
1.99522
1.9633
1.93222
1.9025
1.87502
0.00218194
0.00361304
0.00486116
0.00598881
0.00703731
0.00802316
0.00895353
0.00984967
0.0107288
0.0116043
0.0124869
0.0133845
0.0143033
0.0152481
0.0162226
0.0172303
0.0182747
0.0193594
0.0204885
0.0216667
0.0228985
0.0241891
0.0255436
0.0269671
0.028465
0.0300423
0.0317041
0.0334555
0.0353014
0.0372469
0.0392969
0.0414565
0.0437308
0.0461249
0.0486444
0.0512947
0.0540816
0.057011
0.0600892
0.0633226
0.066718
0.0702823
0.074023
0.0779477
0.0820645
0.0863817
0.090908
0.0956527
0.100625
0.105836
0.111295
0.117013
0.123002
0.129274
0.135841
0.142716
0.149913
0.157445
0.165327
0.173574
0.182201
0.191222
0.200653
0.21051
0.220806
0.231556
0.242771
0.254463
0.26664
0.27931
0.292477
0.306146
0.320325
0.335023
0.350256
0.366037
0.382386
0.399317
0.416842
0.434974
0.453723
0.4731
0.493112
0.513769
0.535076
0.557039
0.579662
0.602948
0.626899
0.651513
0.67679
0.702726
0.729317
0.756556
0.784437
0.812948
0.842082
0.871825
0.902166
0.933092
0.964588
0.996639
1.02923
1.06235
1.09597
1.13009
1.16469
1.19974
1.23523
1.27115
1.30746
1.34416
1.3812
1.41857
1.45623
1.49416
1.53231
1.57066
1.60916
1.64778
1.6865
1.72527
1.76408
1.80278
1.84129
1.87963
1.9178
1.95579
1.9936
2.03121
2.06862
2.1058
2.14274
2.1794
2.21576
2.25177
2.28739
2.32256
2.35722
2.39129
2.4247
2.45733
2.48908
2.51982
2.54941
2.57771
2.60455
2.62977
2.65318
2.67457
2.69377
2.71056
2.72474
2.73612
2.74451
2.74974
2.75166
2.75014
2.74508
2.73642
2.7241
2.70805
2.68835
2.66524
2.63907
2.61036
2.57964
2.54727
2.51351
2.47857
2.44271
2.40625
2.36949
2.33274
2.29629
2.26044
2.22554
2.19203
2.16051
2.13153
0.0027264
0.00459078
0.00617651
0.00756846
0.00881361
0.00995089
0.011016
0.0120352
0.0130286
0.0140117
0.0149969
0.015994
0.0170107
0.0180532
0.0191265
0.0202352
0.0213838
0.0225767
0.0238186
0.0251144
0.0264694
0.0278889
0.0293784
0.0309434
0.0325895
0.0343222
0.0361472
0.0380699
0.0400958
0.0422305
0.0444796
0.0468488
0.0493441
0.0519712
0.0547365
0.0576462
0.060707
0.0639257
0.0673093
0.0708653
0.0746013
0.0785255
0.0826461
0.0869718
0.0915118
0.0962756
0.101273
0.106514
0.112011
0.117773
0.123813
0.130142
0.136775
0.143723
0.151
0.158621
0.166601
0.174953
0.183694
0.19284
0.202405
0.212407
0.222862
0.233784
0.245189
0.257093
0.269509
0.282451
0.295931
0.309961
0.324553
0.339717
0.355468
0.37182
0.38879
0.406394
0.424651
0.443575
0.463182
0.483486
0.504501
0.526238
0.548709
0.571924
0.595892
0.620619
0.646111
0.672372
0.699403
0.727205
0.755775
0.78511
0.815202
0.846045
0.877626
0.909935
0.942957
0.976675
1.01107
1.04613
1.08183
1.11815
1.15507
1.19256
1.23061
1.26919
1.30828
1.34786
1.38789
1.42837
1.46925
1.51051
1.55212
1.59405
1.63625
1.67869
1.72132
1.76409
1.80696
1.84987
1.89278
1.93564
1.97842
2.02087
2.063
2.10482
2.14631
2.18748
2.22832
2.26882
2.30896
2.34874
2.38814
2.42713
2.46569
2.50379
2.54138
2.57843
2.61488
2.65066
2.6857
2.7199
2.75317
2.78538
2.8164
2.8461
2.87431
2.90087
2.92559
2.94827
2.9687
2.9867
3.00202
3.01446
3.02382
3.0299
3.03253
3.03154
3.02679
3.01816
3.00553
2.98895
2.96859
2.94474
2.91774
2.88801
2.85597
2.82194
2.78623
2.74912
2.71095
2.67207
2.63283
2.59359
2.55471
2.51658
2.47961
2.4443
2.41117
2.38036
0.00327873
0.00559477
0.00750687
0.00911026
0.010518
0.0117956
0.0129852
0.0141165
0.0152121
0.0162898
0.0173638
0.0184456
0.0195444
0.020668
0.0218229
0.0230148
0.0242491
0.0255311
0.0268661
0.0282596
0.0297172
0.0312443
0.0328469
0.0345306
0.0363012
0.0381645
0.0401264
0.0421927
0.0443694
0.0466623
0.0490777
0.0516217
0.0543009
0.0571217
0.0600911
0.063216
0.0665038
0.0699621
0.0735988
0.077422
0.0814403
0.0856625
0.090098
0.0947564
0.0996476
0.104782
0.110171
0.115826
0.121758
0.12798
0.134504
0.141344
0.148514
0.156028
0.163901
0.172149
0.180786
0.18983
0.199296
0.209202
0.219565
0.230402
0.241731
0.253568
0.265932
0.278839
0.292306
0.306349
0.320985
0.336229
0.352099
0.368611
0.385783
0.403633
0.422181
0.441446
0.461447
0.482204
0.503733
0.526053
0.549179
0.573127
0.597911
0.623543
0.650035
0.677396
0.705633
0.734751
0.764753
0.795639
0.827408
0.860055
0.893571
0.927946
0.963168
0.999221
1.03609
1.07374
1.11217
1.15134
1.19122
1.2318
1.27303
1.3149
1.35737
1.4004
1.44398
1.48807
1.53264
1.57766
1.62309
1.66891
1.71506
1.76151
1.80822
1.85512
1.90217
1.94929
1.99644
2.04353
2.0905
2.1373
2.18379
2.22978
2.27527
2.32027
2.36477
2.40876
2.45223
2.49518
2.5376
2.57949
2.62082
2.66159
2.70177
2.74135
2.7803
2.81859
2.85617
2.89299
2.929
2.96411
2.99825
3.03131
3.06316
3.0937
3.12276
3.15021
3.17585
3.19949
3.22093
3.23997
3.25637
3.26993
3.2804
3.28757
3.29123
3.29117
3.28718
3.27915
3.26707
3.251
3.23114
3.20775
3.1811
3.15151
3.11932
3.08487
3.04846
3.01042
2.97112
2.93095
2.89031
2.84959
2.8092
2.76957
2.73117
2.69445
2.65983
2.62718
0.00380396
0.00655869
0.0087381
0.0105316
0.0120933
0.0135027
0.014808
0.0160424
0.0172311
0.0183938
0.0195465
0.0207021
0.0218716
0.023064
0.0242871
0.025548
0.026853
0.0282084
0.02962
0.0310939
0.0326358
0.0342518
0.0359475
0.0377291
0.0396022
0.0415729
0.043647
0.0458307
0.04813
0.0505513
0.0531011
0.055786
0.0586129
0.0615889
0.0647214
0.068018
0.0714866
0.0751356
0.0789733
0.0830088
0.0872513
0.0917105
0.0963962
0.101319
0.10649
0.11192
0.117621
0.123606
0.129886
0.136476
0.143389
0.15064
0.158243
0.166215
0.17457
0.183326
0.192499
0.202107
0.212168
0.222701
0.233724
0.245256
0.257317
0.269925
0.283101
0.296864
0.311234
0.326231
0.341876
0.358187
0.375188
0.392897
0.411339
0.430534
0.450506
0.471277
0.492871
0.515309
0.538612
0.562803
0.5879
0.613922
0.640888
0.668812
0.697709
0.727591
0.758467
0.790344
0.823228
0.857118
0.892013
0.927908
0.964793
1.00266
1.04149
1.08126
1.12195
1.16354
1.20599
1.24928
1.29337
1.33823
1.38381
1.43008
1.47701
1.52455
1.57266
1.62131
1.67045
1.72006
1.77008
1.82048
1.87121
1.92222
1.97346
2.02485
2.07633
2.12782
2.17923
2.23048
2.28149
2.33218
2.38224
2.43162
2.48031
2.5283
2.57558
2.62213
2.66794
2.71303
2.75737
2.80096
2.84381
2.8859
2.92723
2.96778
3.00754
3.0465
3.08463
3.1219
3.15826
3.19368
3.22808
3.26138
3.29348
3.32429
3.35369
3.38154
3.40768
3.43192
3.45409
3.47397
3.49133
3.50598
3.51762
3.52602
3.53094
3.53212
3.52942
3.52276
3.51215
3.49762
3.47933
3.45745
3.43218
3.40378
3.37255
3.33877
3.30277
3.26488
3.22551
3.18506
3.14394
3.10259
3.06145
3.02097
2.98161
2.94378
2.90781
2.87345
0.00426632
0.00743241
0.0098489
0.0118106
0.0135096
0.0150375
0.0164474
0.0177753
0.0190483
0.0202874
0.0215102
0.0227308
0.0239615
0.0252126
0.0264931
0.0278113
0.0291745
0.0305897
0.0320635
0.0336024
0.0352124
0.0368997
0.0386702
0.0405298
0.0424843
0.0445396
0.0467018
0.0489769
0.0513713
0.0538914
0.056544
0.059336
0.0622746
0.0653674
0.0686222
0.0720471
0.0756505
0.0794412
0.0834284
0.0876216
0.0920305
0.0966656
0.101537
0.106657
0.112036
0.117687
0.123622
0.129853
0.136396
0.143264
0.150471
0.158034
0.165968
0.17429
0.183016
0.192165
0.201756
0.211806
0.222336
0.233366
0.244917
0.257009
0.269664
0.282904
0.296751
0.311229
0.326361
0.342169
0.358679
0.375915
0.393902
0.412665
0.432232
0.452628
0.47388
0.496016
0.519063
0.543045
0.56799
0.593922
0.620866
0.648844
0.677878
0.707987
0.739188
0.771498
0.804927
0.839486
0.875181
0.912013
0.949983
0.989083
1.02931
1.07064
1.11306
1.15654
1.20107
1.2466
1.2931
1.34054
1.38888
1.43806
1.48804
1.53877
1.59022
1.64232
1.69503
1.7483
1.80209
1.85634
1.91102
1.96607
2.02144
2.07707
2.13289
2.18883
2.24479
2.30069
2.35642
2.41186
2.46691
2.52139
2.57499
2.62769
2.67947
2.73031
2.7802
2.82913
2.87707
2.92404
2.97002
3.01502
3.05904
3.10208
3.14413
3.1852
3.2253
3.26441
3.30255
3.3397
3.37584
3.41095
3.445
3.47792
3.50966
3.54014
3.56929
3.59701
3.62313
3.64751
3.67001
3.69042
3.70848
3.72403
3.73675
3.74637
3.75269
3.7555
3.75467
3.7501
3.74175
3.72961
3.71374
3.69424
3.67127
3.645
3.61568
3.58356
3.54895
3.51219
3.47367
3.4338
3.39302
3.35178
3.31052
3.26971
3.22979
3.19114
3.154
3.11817
0.00466374
0.00821515
0.010833
0.0129349
0.0147498
0.0163793
0.0178801
0.01929
0.020637
0.0219434
0.0232273
0.0245042
0.0257872
0.0270878
0.0284161
0.0297812
0.0311915
0.0326546
0.0341777
0.0357676
0.0374307
0.039173
0.0410005
0.042919
0.0449342
0.047052
0.0492782
0.0516191
0.0540809
0.0566702
0.0593939
0.0622592
0.0652735
0.0684448
0.0717812
0.0752912
0.0789836
0.0828677
0.0869531
0.0912497
0.095768
0.100519
0.105513
0.110763
0.11628
0.122078
0.128169
0.134567
0.141288
0.148345
0.155755
0.163533
0.171698
0.180266
0.189257
0.198689
0.208582
0.218957
0.229836
0.24124
0.253192
0.265716
0.278836
0.292577
0.306964
0.322024
0.337784
0.354271
0.371513
0.38954
0.408382
0.428068
0.44863
0.470099
0.492507
0.515885
0.540264
0.565677
0.592153
0.619722
0.648413
0.678252
0.709267
0.74148
0.774912
0.809582
0.845505
0.882694
0.921156
0.960896
1.00191
1.0442
1.08775
1.13254
1.17856
1.22578
1.27416
1.32366
1.37425
1.42588
1.4785
1.53206
1.5865
1.64176
1.69778
1.7545
1.81188
1.86984
1.92833
1.9873
2.04669
2.10644
2.16651
2.22681
2.28727
2.3478
2.4083
2.46865
2.52873
2.5884
2.64753
2.70568
2.76274
2.81868
2.87346
2.92705
2.97942
3.03056
3.08045
3.1291
3.1765
3.22265
3.26755
3.3112
3.35362
3.39481
3.4348
3.4736
3.51123
3.54772
3.58306
3.61728
3.65035
3.68225
3.71296
3.74245
3.7707
3.79765
3.82314
3.84707
3.86936
3.8898
3.90814
3.92421
3.93777
3.94859
3.95648
3.96123
3.96268
3.96069
3.95516
3.94601
3.93323
3.91684
3.89692
3.87358
3.847
3.81739
3.78503
3.75024
3.71338
3.67487
3.63514
3.59464
3.55383
3.51315
3.47305
3.43387
3.39582
3.35879
0.00500511
0.00890402
0.0116876
0.0139008
0.0158083
0.01752
0.0190954
0.0205731
0.0219817
0.0233439
0.0246785
0.0260017
0.0273275
0.028668
0.0300343
0.0314363
0.0328832
0.0343831
0.0359435
0.0375714
0.0392733
0.041055
0.0429225
0.0448812
0.0469369
0.0490951
0.0513616
0.0537426
0.0562443
0.0588733
0.0616366
0.0645417
0.067596
0.0708078
0.0741854
0.0777378
0.081474
0.0854037
0.0895368
0.0938838
0.0984554
0.103263
0.108318
0.113633
0.11922
0.125093
0.131266
0.137753
0.144569
0.151731
0.159254
0.167157
0.175457
0.184174
0.193327
0.202937
0.213026
0.223616
0.234731
0.246395
0.258633
0.271472
0.284939
0.299063
0.313871
0.329395
0.345665
0.362713
0.380573
0.399278
0.418864
0.439364
0.460817
0.483257
0.506723
0.531251
0.556877
0.583639
0.611571
0.640708
0.671085
0.702731
0.735679
0.769955
0.805584
0.842588
0.880986
0.920792
0.962016
1.00466
1.04874
1.09423
1.14112
1.18941
1.23905
1.29003
1.3423
1.39582
1.45054
1.50641
1.56337
1.62135
1.68029
1.74012
1.80077
1.86216
1.92423
1.98691
2.05014
2.11384
2.17797
2.24244
2.30721
2.37219
2.43729
2.50242
2.56745
2.63225
2.69666
2.76053
2.82355
2.88529
2.94572
3.00478
3.06242
3.11861
3.17331
3.22651
3.27817
3.3283
3.37689
3.42395
3.46947
3.51345
3.5559
3.59685
3.63633
3.67438
3.71103
3.74633
3.78032
3.81307
3.84454
3.87475
3.90373
3.93152
3.95814
3.98361
4.00773
4.0305
4.05186
4.07165
4.08974
4.10595
4.12011
4.132
4.14144
4.14821
4.15211
4.15295
4.15057
4.14482
4.1356
4.12286
4.1066
4.08684
4.06371
4.03734
4.00797
3.97589
3.94142
3.90496
3.86692
3.82775
3.7879
3.74781
3.70791
3.66851
3.62984
3.59194
0.00529297
0.00950041
0.0124162
0.0147128
0.0166886
0.0184615
0.0200926
0.0216213
0.0230761
0.0244803
0.0258528
0.0272103
0.0285674
0.0299369
0.0313307
0.0327592
0.034232
0.0357576
0.0373436
0.0389969
0.0407237
0.0425297
0.0444204
0.0464011
0.0484773
0.0506542
0.0529376
0.0553334
0.0578478
0.0604874
0.0632593
0.0661709
0.06923
0.0724449
0.0758242
0.079377
0.0831128
0.0870415
0.0911734
0.0955191
0.10009
0.104897
0.109953
0.115271
0.120863
0.126743
0.132927
0.139428
0.146263
0.153449
0.161003
0.168945
0.177292
0.186066
0.195289
0.204982
0.215169
0.225876
0.237127
0.248951
0.261375
0.274428
0.288142
0.302549
0.317682
0.333574
0.350262
0.367783
0.386175
0.405477
0.425729
0.446973
0.46925
0.492603
0.517075
0.542709
0.569546
0.597629
0.626998
0.657693
0.689752
0.723211
0.758104
0.794463
0.832316
0.871688
0.9126
0.955067
0.999102
1.04471
1.09189
1.14064
1.19094
1.24278
1.29612
1.35092
1.40714
1.46473
1.52362
1.58377
1.6451
1.70754
1.771
1.83542
1.9007
1.96676
2.03353
2.10091
2.16883
2.23723
2.30602
2.37515
2.44454
2.51411
2.58377
2.65339
2.72284
2.79195
2.86058
2.92847
2.99501
3.06011
3.12366
3.18561
3.2459
3.30447
3.36129
3.41631
3.46952
3.5209
3.57044
3.61816
3.66403
3.70803
3.75019
3.79055
3.82914
3.86602
3.90123
3.93485
3.96696
3.99765
4.02691
4.05477
4.08134
4.1067
4.13091
4.154
4.17597
4.19683
4.21655
4.23509
4.25235
4.26823
4.28258
4.29523
4.30598
4.31461
4.32088
4.32458
4.32545
4.32331
4.31796
4.30926
4.29711
4.28148
4.26237
4.23988
4.21416
4.18544
4.15402
4.12025
4.08452
4.04724
4.00886
3.96982
3.93052
3.89128
3.85234
3.81389
0.00553184
0.01001
0.0130272
0.0153806
0.0174007
0.0192126
0.0208788
0.022439
0.0239223
0.0253517
0.0267467
0.0281241
0.0294989
0.0308848
0.032294
0.0337374
0.0352248
0.0367646
0.0383642
0.04003
0.0417678
0.0435829
0.0454804
0.0474651
0.0495421
0.0517165
0.0539937
0.0563795
0.0588799
0.0615016
0.0642515
0.0671373
0.0701667
0.0733483
0.0766909
0.0802038
0.0838966
0.0877796
0.0918632
0.0961586
0.100677
0.105431
0.110432
0.115693
0.121229
0.127054
0.133182
0.139629
0.146413
0.153551
0.161062
0.168965
0.177282
0.186035
0.195247
0.204942
0.215147
0.225888
0.237196
0.2491
0.261632
0.274825
0.288715
0.303338
0.318732
0.334936
0.35199
0.369939
0.388825
0.408694
0.429591
0.451566
0.474666
0.49894
0.524438
0.551208
0.5793
0.60876
0.639634
0.671964
0.705793
0.74116
0.778104
0.816657
0.856851
0.898712
0.942261
0.987515
1.03448
1.08318
1.13359
1.18571
1.23953
1.29503
1.35216
1.41087
1.47111
1.53281
1.59593
1.66038
1.72609
1.79297
1.86094
1.9299
1.99975
2.07041
2.14176
2.21373
2.28622
2.35915
2.43243
2.50601
2.5798
2.65374
2.72771
2.80154
2.87511
2.94824
3.02071
3.09194
3.16161
3.22963
3.29591
3.36036
3.42291
3.4835
3.54208
3.59859
3.653
3.70529
3.75545
3.80351
3.8494
3.89308
3.93459
3.97398
4.01129
4.04659
4.07993
4.11139
4.14108
4.16909
4.19549
4.22038
4.24387
4.26611
4.2872
4.30725
4.32635
4.34458
4.36198
4.37859
4.3944
4.40934
4.42333
4.43623
4.44786
4.458
4.4664
4.47278
4.47687
4.47838
4.47705
4.47264
4.46496
4.45387
4.43929
4.42122
4.39975
4.37502
4.34727
4.31681
4.28398
4.24917
4.2128
4.17529
4.13703
4.09837
4.05954
4.02091
0.00572839
0.0104417
0.0135317
0.0159173
0.0179584
0.0197864
0.0214658
0.0230367
0.0245283
0.025964
0.0273634
0.0287437
0.0301205
0.0315081
0.032919
0.0343644
0.035854
0.0373956
0.0389961
0.0406611
0.0423957
0.0442046
0.0460922
0.0480629
0.0501213
0.0522721
0.0545205
0.0568719
0.0593323
0.0619083
0.0646068
0.0674354
0.0704021
0.0735156
0.0767849
0.0802193
0.083829
0.0876241
0.0916157
0.095815
0.100234
0.104884
0.109779
0.114932
0.120358
0.12607
0.132085
0.13842
0.145092
0.152121
0.159527
0.167331
0.175555
0.184225
0.193366
0.203005
0.213171
0.223894
0.235209
0.247148
0.259749
0.273049
0.28709
0.301912
0.317561
0.33408
0.351517
0.369921
0.389342
0.409833
0.431446
0.454237
0.47826
0.503572
0.53023
0.558289
0.587804
0.61883
0.651413
0.685594
0.721419
0.758929
0.798164
0.839157
0.88194
0.926537
0.972967
1.02124
1.07138
1.12336
1.1772
1.23288
1.29039
1.34969
1.41075
1.47347
1.53779
1.60365
1.67099
1.73972
1.80975
1.88099
1.95334
2.0267
2.10095
2.17599
2.25171
2.32799
2.40475
2.48188
2.5593
2.63693
2.7147
2.79255
2.87037
2.94788
3.02501
3.10151
3.17686
3.25065
3.32274
3.39301
3.46136
3.5277
3.59193
3.65397
3.71376
3.77124
3.82635
3.87907
3.92936
3.97722
4.0226
4.0655
4.10593
4.14392
4.17952
4.21279
4.2438
4.27264
4.29943
4.32429
4.34734
4.36871
4.38857
4.40709
4.42447
4.44087
4.45646
4.47139
4.48581
4.49982
4.51348
4.52682
4.53981
4.55236
4.56432
4.5755
4.58563
4.59442
4.60154
4.60664
4.60938
4.60942
4.60647
4.60028
4.59067
4.57754
4.56087
4.54073
4.51728
4.49074
4.46143
4.42969
4.39589
4.36045
4.32375
4.28613
4.24785
4.20944
0.0058911
0.0108062
0.0139424
0.016337
0.0183763
0.020198
0.0218682
0.0234278
0.0249065
0.0263277
0.0277116
0.0290758
0.0304368
0.0318095
0.033207
0.0346405
0.0361187
0.0376489
0.0392365
0.0408865
0.0426029
0.0443896
0.0462503
0.0481888
0.0502092
0.0523156
0.0545129
0.0568062
0.0592014
0.0617048
0.0643236
0.0670653
0.0699382
0.0729509
0.0761128
0.0794335
0.0829232
0.0865926
0.0904529
0.0945157
0.0987932
0.103298
0.108044
0.113044
0.118314
0.123869
0.129727
0.135904
0.14242
0.149297
0.156556
0.16422
0.172317
0.180872
0.189914
0.199475
0.209587
0.220286
0.231608
0.243595
0.256289
0.269734
0.283979
0.299073
0.315067
0.332014
0.349967
0.36898
0.389114
0.410427
0.432983
0.456841
0.482065
0.508717
0.536861
0.566558
0.597874
0.630867
0.665588
0.702056
0.740317
0.780414
0.822384
0.866258
0.912061
0.959811
1.00952
1.06119
1.11483
1.17043
1.22797
1.28744
1.34881
1.41208
1.47724
1.54402
1.61243
1.6824
1.75386
1.82672
1.90089
1.97624
2.05269
2.13011
2.20839
2.2874
2.36702
2.44713
2.52762
2.60838
2.6893
2.7703
2.8513
2.9322
3.01288
3.09314
3.17279
3.25129
3.32828
3.4036
3.47712
3.5487
3.61821
3.68555
3.75062
3.81332
3.87356
3.93127
3.98638
4.03885
4.08863
4.13569
4.18001
4.22157
4.26036
4.29643
4.3298
4.36054
4.38874
4.41449
4.43791
4.45917
4.4784
4.49578
4.51152
4.52584
4.53899
4.5512
4.56271
4.57377
4.58458
4.59535
4.60622
4.61731
4.62866
4.64024
4.65197
4.66367
4.67511
4.68596
4.69588
4.70445
4.71125
4.71585
4.71786
4.7169
4.71269
4.705
4.6937
4.67876
4.66024
4.63829
4.61316
4.58512
4.55453
4.52176
4.48717
4.45114
4.41391
4.37616
0.00603024
0.0111149
0.0142704
0.0166514
0.0186672
0.0204607
0.0220999
0.0236266
0.025071
0.0264568
0.0278042
0.0291319
0.0304578
0.0317981
0.0331665
0.0345732
0.0360259
0.0375301
0.0390902
0.0407098
0.0423919
0.0441395
0.0459557
0.0478434
0.049806
0.0518473
0.0539716
0.0561838
0.0584895
0.0608951
0.0634078
0.0660352
0.0687859
0.0716688
0.0746934
0.0778696
0.0812081
0.0847199
0.0884167
0.0923107
0.0964147
0.100742
0.105307
0.110124
0.11521
0.12058
0.126255
0.132252
0.138595
0.145305
0.15241
0.159935
0.167912
0.176371
0.185346
0.194873
0.20499
0.21574
0.227167
0.23932
0.25225
0.266011
0.280662
0.296263
0.312879
0.330573
0.349396
0.369414
0.390696
0.413311
0.437327
0.462814
0.489837
0.518464
0.54876
0.580791
0.614625
0.650343