/*--------------------------------*- C++ -*----------------------------------*\
| =========                 |                                                 |
| \\      /  F ield         | OpenFOAM: The Open Source CFD Toolbox           |
|  \\    /   O peration     | Version:  1.4.2                                 |
|   \\  /    A nd           | Web:      http://www.openfoam.org               |
|    \\/     M anipulation  |                                                 |
\*---------------------------------------------------------------------------*/
FoamFile
{
    version     2.0;
    format      ascii;
    class       volScalarField;
    object      p;
    location    "800";
}
// * * * * * * * * * * * * * * * * * * * * * * * * * * * * * * * * * * * * * //

dimensions      [0 2 -2 0 0 0 0];

internalField   nonuniform List<scalar> 
12225
(
-2.59308
-3.43065
-3.67992
-3.77744
-3.88311
-3.98675
-4.07826
-4.16133
-4.23992
-4.31575
-4.38989
-4.46344
-4.53771
-4.61436
-4.6958
-4.78608
-4.89199
-5.04021
-2.75941
-3.4378
-3.6779
-3.77903
-3.88373
-3.98566
-4.07598
-4.15812
-4.23583
-4.3108
-4.3841
-4.45683
-4.53025
-4.60598
-4.68631
-4.77486
-4.8778
-5.01098
-2.93846
-3.43376
-3.66713
-3.77673
-3.88158
-3.98208
-4.07172
-4.15353
-4.23089
-4.30547
-4.37829
-4.45044
-4.52307
-4.5976
-4.67584
-4.76023
-4.85295
-4.95565
-3.09561
-3.45132
-3.67003
-3.784
-3.8873
-3.98531
-4.0736
-4.15465
-4.2314
-4.30536
-4.37754
-4.44891
-4.52046
-4.59332
-4.66868
-4.74768
-4.83002
-4.91271
-3.22542
-3.4827
-3.68063
-3.79516
-3.89608
-3.99122
-4.0777
-4.15755
-4.23324
-4.30618
-4.3773
-4.44742
-4.51735
-4.58786
-4.65955
-4.73255
-4.80525
-4.87337
-3.33847
-3.52242
-3.69617
-3.80818
-3.90595
-3.998
-4.0825
-4.16099
-4.2355
-4.30727
-4.37711
-4.44572
-4.51368
-4.58143
-4.6491
-4.71615
-4.78052
-4.83826
-3.43869
-3.56794
-3.71643
-3.82306
-3.91676
-4.0052
-4.08726
-4.16405
-4.23713
-4.3075
-4.37584
-4.44267
-4.50837
-4.57309
-4.6366
-4.69804
-4.75544
-4.80565
-3.51479
-3.60973
-3.73738
-3.83745
-3.92691
-4.01181
-4.09135
-4.16628
-4.23779
-4.30667
-4.37344
-4.43849
-4.50202
-4.56401
-4.62405
-4.68122
-4.7338
-4.77935
-3.57576
-3.64775
-3.75795
-3.85161
-3.93688
-4.01833
-4.09536
-4.16837
-4.23822
-4.30552
-4.37067
-4.43393
-4.49537
-4.55485
-4.6119
-4.66561
-4.71461
-4.75687
-3.63577
-3.68926
-3.7821
-3.8683
-3.9486
-4.02604
-4.10008
-4.17075
-4.23856
-4.30393
-4.36711
-4.42824
-4.48728
-4.544
-4.59791
-4.64824
-4.69389
-4.73332
-3.694
-3.73325
-3.80972
-3.88748
-3.96211
-4.03498
-4.1055
-4.17336
-4.23872
-4.30178
-4.36264
-4.42132
-4.47768
-4.53146
-4.58221
-4.62926
-4.67187
-4.70886
-3.7496
-3.7784
-3.84024
-3.90894
-3.97732
-4.04512
-4.11161
-4.17617
-4.23864
-4.299
-4.35719
-4.41311
-4.46659
-4.51732
-4.56491
-4.60889
-4.64874
-4.68365
-3.80174
-3.82313
-3.87257
-3.93214
-3.99389
-4.05627
-4.11828
-4.17909
-4.23825
-4.29552
-4.35071
-4.40364
-4.45405
-4.50169
-4.54624
-4.58737
-4.62473
-4.65782
-3.84941
-3.86567
-3.90512
-3.95608
-4.01113
-4.0679
-4.12515
-4.18186
-4.23736
-4.29125
-4.34319
-4.39294
-4.44023
-4.48481
-4.52646
-4.56495
-4.60009
-4.63156
-3.8912
-3.90395
-3.93576
-3.97914
-4.02783
-4.07913
-4.13156
-4.18402
-4.23568
-4.286
-4.33458
-4.38109
-4.42527
-4.46692
-4.50586
-4.54196
-4.5751
-4.60511
-3.92509
-3.9355
-3.9618
-3.99907
-4.04221
-4.08853
-4.13645
-4.18479
-4.23269
-4.27949
-4.32475
-4.36812
-4.40936
-4.44828
-4.48475
-4.5187
-4.55006
-4.57874
-3.94807
-3.95705
-3.97981
-4.01278
-4.05172
-4.09405
-4.1382
-4.18299
-4.22753
-4.27116
-4.31342
-4.35397
-4.39257
-4.42908
-4.4634
-4.49548
-4.5253
-4.55281
-3.95509
-3.96356
-3.98501
-4.01617
-4.05305
-4.09319
-4.13506
-4.17755
-4.21978
-4.26115
-4.3012
-4.33963
-4.37625
-4.41093
-4.4436
-4.47424
-4.50284
-4.52938
-3.94557
-3.95449
-3.97693
-4.00892
-4.04611
-4.08611
-4.12748
-4.16919
-4.21045
-4.25069
-4.28954
-4.32676
-4.36218
-4.39572
-4.42735
-4.45705
-4.48484
-4.51071
-3.92349
-3.93386
-3.95945
-3.99449
-4.03387
-4.07528
-4.1175
-4.15958
-4.20084
-4.24083
-4.27924
-4.31591
-4.35073
-4.38366
-4.41468
-4.44383
-4.47111
-4.49654
-3.89137
-3.90455
-3.9357
-3.97578
-4.01873
-4.06264
-4.10658
-4.14977
-4.19165
-4.2319
-4.27034
-4.30688
-4.34146
-4.37409
-4.40478
-4.43359
-4.46054
-4.48566
-3.85041
-3.86851
-3.90821
-3.95507
-4.0025
-4.04956
-4.09576
-4.14045
-4.18327
-4.22407
-4.26279
-4.29943
-4.33399
-4.36651
-4.39704
-4.42564
-4.45237
-4.47724
-3.80081
-3.82735
-3.87922
-3.93418
-3.98649
-4.03702
-4.08569
-4.13202
-4.17589
-4.21735
-4.25647
-4.29332
-4.32798
-4.36051
-4.39098
-4.41948
-4.44605
-4.4707
-3.74198
-3.78265
-3.85087
-3.91447
-3.97154
-4.02558
-4.07673
-4.12465
-4.16954
-4.21166
-4.2512
-4.28832
-4.32312
-4.35572
-4.38621
-4.41466
-4.44111
-4.46554
-3.67266
-3.73629
-3.82509
-3.89687
-3.95818
-4.01556
-4.06901
-4.11834
-4.1641
-4.2068
-4.24672
-4.28409
-4.31906
-4.35177
-4.38233
-4.4108
-4.43721
-4.46145
-3.59103
-3.69058
-3.80335
-3.88171
-3.94643
-4.00684
-4.0623
-4.11278
-4.15925
-4.20242
-4.24267
-4.28026
-4.31541
-4.34829
-4.379
-4.40762
-4.43411
-4.45827
-3.49361
-3.64912
-3.7868
-3.86887
-3.93616
-3.99935
-4.05655
-4.10801
-4.15509
-4.19872
-4.23933
-4.27722
-4.31263
-4.34578
-4.3768
-4.40576
-4.43261
-4.45707
-3.36873
-3.61771
-3.778
-3.85919
-3.92802
-3.99371
-4.05242
-4.10464
-4.15224
-4.19625
-4.23715
-4.27527
-4.31089
-4.34425
-4.37554
-4.4049
-4.43232
-4.45757
-3.20775
-3.60691
-3.78511
-3.86024
-3.92869
-3.99577
-4.05516
-4.10756
-4.15523
-4.19929
-4.24022
-4.27836
-4.31401
-4.34744
-4.37888
-4.40862
-4.43684
-4.46405
-3.04484
-3.59036
-3.7851
-3.85755
-3.92656
-3.995
-4.05516
-4.10795
-4.15591
-4.20024
-4.24144
-4.27983
-4.31573
-4.34941
-4.38116
-4.41134
-4.44048
-4.47264
-5.10051
-5.10044
-5.10042
-5.10049
-5.10063
-5.10085
-5.10112
-5.10144
-5.10179
-5.10216
-5.10256
-5.10298
-5.10343
-5.10391
-5.10443
-5.10498
-5.10558
-5.10622
-5.10693
-5.1077
-5.10855
-5.10947
-5.11047
-5.11158
-5.11279
-5.11411
-5.11557
-5.11717
-5.11893
-5.12087
-5.12299
-5.12533
-5.12788
-5.13068
-5.13374
-5.13707
-5.14069
-5.14463
-5.14889
-5.1535
-5.15847
-5.16381
-5.16955
-5.1757
-5.18228
-5.18929
-5.19677
-5.20472
-5.21315
-5.22209
-5.23155
-5.24153
-5.25206
-5.26314
-5.27479
-5.28702
-5.29984
-5.31326
-5.32729
-5.34193
-5.35719
-5.37307
-5.38957
-5.4067
-5.42444
-5.44279
-5.46174
-5.48127
-5.50136
-5.52199
-5.54314
-5.56485
-5.58728
-5.61063
-5.63466
-5.65887
-5.68314
-5.70752
-5.73202
-5.75658
-5.78115
-5.80564
-5.82996
-5.85403
-5.87775
-5.90101
-5.92368
-5.94566
-5.96682
-5.98702
-6.00613
-6.024
-6.04048
-6.05543
-6.06869
-6.0801
-6.08947
-6.09664
-6.10142
-6.10363
-6.10307
-6.09955
-6.09286
-6.08278
-6.06907
-6.0515
-6.02979
-6.00369
-5.97291
-5.93713
-5.89604
-5.84931
-5.79657
-5.73748
-5.67167
-5.59875
-5.51835
-5.43009
-5.33361
-5.22852
-5.11446
-4.99109
-4.85803
-4.7149
-4.56129
-4.39686
-4.22128
-4.03425
-3.83544
-3.62454
-3.40121
-3.16513
-2.916
-2.65354
-2.3775
-2.08766
-1.78387
-1.46604
-1.13415
-0.788288
-0.428614
-0.055424
0.33086
0.729675
1.14031
1.56191
1.99344
2.43373
2.88144
3.33507
3.793
4.25346
4.71459
5.17446
5.63105
6.08235
6.52633
6.96101
7.38447
7.79491
8.19066
8.57021
8.93226
9.27567
9.59975
9.90429
10.1891
10.4551
10.701
10.9248
11.1269
11.3081
11.4692
11.6111
11.7348
11.8414
11.9333
12.0121
12.0905
12.164
-5.10055
-5.10049
-5.10047
-5.10053
-5.10067
-5.10086
-5.10109
-5.10134
-5.10161
-5.1019
-5.10221
-5.10254
-5.1029
-5.10329
-5.10372
-5.10419
-5.1047
-5.10526
-5.10587
-5.10654
-5.10728
-5.10809
-5.10899
-5.10997
-5.11106
-5.11226
-5.11358
-5.11504
-5.11665
-5.11843
-5.12039
-5.12255
-5.12492
-5.12752
-5.13038
-5.1335
-5.1369
-5.1406
-5.14462
-5.14897
-5.15367
-5.15873
-5.16418
-5.17002
-5.17628
-5.18297
-5.1901
-5.19769
-5.20576
-5.21432
-5.22338
-5.23296
-5.24307
-5.25373
-5.26495
-5.27673
-5.28911
-5.30208
-5.31565
-5.32984
-5.34466
-5.3601
-5.37618
-5.39291
-5.41028
-5.4283
-5.44696
-5.46625
-5.48616
-5.50668
-5.52778
-5.54944
-5.57156
-5.59393
-5.61652
-5.63957
-5.66307
-5.68684
-5.71077
-5.7348
-5.75885
-5.78284
-5.80669
-5.8303
-5.85357
-5.87641
-5.89869
-5.9203
-5.94112
-5.96102
-5.97985
-5.99748
-6.01376
-6.02855
-6.04169
-6.05301
-6.06235
-6.06953
-6.07437
-6.07669
-6.07631
-6.07303
-6.06664
-6.05693
-6.04367
-6.02662
-6.00554
-5.98015
-5.95017
-5.91531
-5.87524
-5.82965
-5.77817
-5.72046
-5.65615
-5.58487
-5.50623
-5.41985
-5.32537
-5.2224
-5.1106
-4.98961
-4.85908
-4.71859
-4.56768
-4.40602
-4.23332
-4.0493
-3.85363
-3.64599
-3.42606
-3.19352
-2.94806
-2.68941
-2.4173
-2.13152
-1.83191
-1.51836
-1.19085
-0.849436
-0.494261
-0.125595
0.256169
0.650502
1.05672
1.47402
1.9014
2.33774
2.78173
3.23194
3.68677
4.14452
4.60335
5.06137
5.51661
5.96708
6.41076
6.8457
7.26999
7.68182
8.0795
8.4615
8.82649
9.17324
9.50106
9.80998
10.099
10.3678
10.6161
10.8427
11.0482
11.2331
11.3981
11.5443
11.6725
11.7842
11.882
11.9675
12.0554
12.1306
-5.10024
-5.10022
-5.10025
-5.10035
-5.10051
-5.1007
-5.10089
-5.10109
-5.10131
-5.10154
-5.10178
-5.10204
-5.10232
-5.10264
-5.10299
-5.10338
-5.10382
-5.1043
-5.10484
-5.10544
-5.10611
-5.10685
-5.10768
-5.10859
-5.10961
-5.11074
-5.11199
-5.11338
-5.11491
-5.11661
-5.11849
-5.12056
-5.12283
-5.12534
-5.12808
-5.13108
-5.13436
-5.13793
-5.1418
-5.146
-5.15053
-5.15542
-5.16069
-5.16634
-5.1724
-5.17887
-5.18579
-5.19315
-5.20098
-5.20929
-5.2181
-5.22742
-5.23727
-5.24765
-5.25858
-5.27008
-5.28216
-5.29482
-5.30808
-5.32195
-5.33644
-5.35154
-5.36727
-5.38363
-5.40062
-5.41823
-5.43647
-5.45532
-5.47479
-5.49486
-5.51553
-5.53679
-5.55859
-5.58076
-5.60321
-5.62597
-5.64905
-5.67237
-5.69588
-5.71949
-5.74313
-5.76672
-5.79018
-5.81341
-5.83632
-5.85881
-5.88075
-5.90204
-5.92256
-5.94217
-5.96074
-5.97812
-5.99419
-6.00878
-6.02174
-6.03292
-6.04215
-6.04926
-6.05406
-6.05639
-6.05606
-6.05287
-6.04664
-6.03714
-6.02415
-6.00744
-5.98677
-5.96188
-5.93249
-5.8983
-5.85902
-5.81431
-5.76383
-5.70722
-5.64413
-5.57418
-5.49699
-5.41219
-5.3194
-5.21825
-5.10838
-4.98948
-4.86119
-4.72298
-4.57443
-4.41528
-4.24525
-4.06402
-3.87131
-3.66678
-3.45013
-3.22103
-2.97919
-2.72432
-2.45617
-2.17452
-1.87919
-1.57008
-1.24716
-0.910449
-0.560098
-0.196346
0.180438
0.56975
0.970946
1.38323
1.80568
2.23718
2.67649
3.1222
3.57278
4.02656
4.48176
4.93653
5.38895
5.83706
6.27889
6.71251
7.13603
7.54766
7.94568
8.32856
8.69507
9.04405
9.37532
9.68827
9.98112
10.2539
10.5066
10.7381
10.9488
11.1392
11.31
11.4621
11.5966
11.7148
11.8199
11.9122
12.0087
12.0761
-5.09953
-5.09959
-5.09971
-5.09987
-5.10005
-5.10025
-5.10044
-5.10064
-5.10083
-5.10102
-5.10122
-5.10143
-5.10167
-5.10193
-5.10223
-5.10257
-5.10296
-5.10339
-5.10389
-5.10445
-5.10507
-5.10578
-5.10657
-5.10745
-5.10844
-5.10953
-5.11076
-5.11212
-5.11363
-5.1153
-5.11715
-5.11919
-5.12145
-5.12392
-5.12663
-5.1296
-5.13284
-5.13636
-5.14019
-5.14434
-5.14882
-5.15366
-5.15886
-5.16445
-5.17044
-5.17684
-5.18368
-5.19097
-5.19872
-5.20695
-5.21567
-5.2249
-5.23465
-5.24494
-5.25577
-5.26717
-5.27915
-5.29171
-5.30486
-5.31862
-5.33299
-5.34797
-5.36357
-5.37979
-5.39664
-5.4141
-5.43217
-5.45084
-5.4701
-5.48994
-5.51034
-5.53129
-5.55274
-5.57463
-5.59689
-5.61949
-5.64239
-5.66554
-5.68888
-5.71233
-5.73581
-5.75926
-5.78259
-5.80569
-5.82848
-5.85084
-5.87268
-5.89387
-5.9143
-5.93382
-5.95232
-5.96964
-5.98565
-6.0002
-6.01313
-6.0243
-6.03353
-6.04065
-6.0455
-6.0479
-6.04767
-6.04462
-6.03855
-6.02925
-6.01652
-6.00011
-5.9798
-5.95532
-5.92641
-5.89277
-5.8541
-5.81008
-5.76036
-5.7046
-5.64242
-5.57345
-5.49732
-5.41365
-5.32206
-5.2222
-5.11372
-4.99632
-4.86955
-4.73284
-4.58589
-4.42846
-4.26027
-4.08101
-3.89037
-3.68805
-3.47373
-3.24708
-3.00781
-2.75564
-2.4903
-2.21156
-1.91926
-1.61328
-1.29356
-0.960129
-0.613116
-0.252743
0.120639
0.506546
0.904355
1.3133
1.73246
2.16079
2.59704
3.03984
3.48769
3.93895
4.39185
4.8446
5.29528
5.74195
6.18267
6.61552
7.03858
7.45009
7.84825
8.23172
8.59976
8.95117
9.28517
9.60097
9.89716
10.1735
10.4298
10.6653
10.8802
11.0749
11.2501
11.4066
11.5456
11.6682
11.7776
11.8724
11.9702
12.0253
-5.09844
-5.09862
-5.09887
-5.09913
-5.09938
-5.09961
-5.09983
-5.10003
-5.10021
-5.10039
-5.10058
-5.10077
-5.10099
-5.10123
-5.10151
-5.10182
-5.10219
-5.1026
-5.10308
-5.10362
-5.10423
-5.10492
-5.1057
-5.10658
-5.10756
-5.10866
-5.10988
-5.11125
-5.11277
-5.11445
-5.11631
-5.11837
-5.12063
-5.12312
-5.12584
-5.12882
-5.13207
-5.1356
-5.13944
-5.14359
-5.14807
-5.1529
-5.1581
-5.16368
-5.16965
-5.17604
-5.18285
-5.1901
-5.19782
-5.20601
-5.21469
-5.22387
-5.23357
-5.2438
-5.25457
-5.26591
-5.27781
-5.29029
-5.30337
-5.31704
-5.33131
-5.3462
-5.3617
-5.37782
-5.39455
-5.4119
-5.42985
-5.44839
-5.46752
-5.48723
-5.50749
-5.52827
-5.54956
-5.5713
-5.59344
-5.61594
-5.63874
-5.6618
-5.68504
-5.70841
-5.73182
-5.7552
-5.77846
-5.80151
-5.82425
-5.84657
-5.86837
-5.88953
-5.90992
-5.92943
-5.94791
-5.96523
-5.98124
-5.9958
-6.00875
-6.01995
-6.02922
-6.03641
-6.04134
-6.04385
-6.04375
-6.04087
-6.03499
-6.02593
-6.01347
-5.99739
-5.97745
-5.9534
-5.92498
-5.89189
-5.85383
-5.81048
-5.7615
-5.70653
-5.6452
-5.57715
-5.50198
-5.41932
-5.32881
-5.23007
-5.12281
-5.00669
-4.88111
-4.74557
-4.59993
-4.44392
-4.27724
-4.09959
-3.91068
-3.71017
-3.49776
-3.27312
-3.03594
-2.78594
-2.52285
-2.24643
-1.9565
-1.65293
-1.33566
-1.0047
-0.660158
-0.302236
0.0687312
0.452279
0.847804
1.25455
1.67164
2.09804
2.53253
2.97373
3.42018
3.87028
4.32224
4.77431
5.22456
5.67107
6.11187
6.54506
6.96865
7.38104
7.78047
8.16615
8.53704
8.89112
9.22777
9.54625
9.84533
10.1246
10.3838
10.6223
10.8403
11.0381
11.2163
11.3756
11.5174
11.6422
11.7534
11.8478
11.944
11.9863
-5.09711
-5.09742
-5.09782
-5.09821
-5.09854
-5.09882
-5.09908
-5.0993
-5.09951
-5.09971
-5.0999
-5.10011
-5.10033
-5.10058
-5.10086
-5.10118
-5.10154
-5.10196
-5.10243
-5.10298
-5.1036
-5.10429
-5.10508
-5.10597
-5.10697
-5.10809
-5.10935
-5.11074
-5.11229
-5.11401
-5.11591
-5.11801
-5.12032
-5.12285
-5.12562
-5.12864
-5.13193
-5.13551
-5.13938
-5.14357
-5.14808
-5.15295
-5.15817
-5.16377
-5.16976
-5.17616
-5.18298
-5.19024
-5.19796
-5.20615
-5.21482
-5.22399
-5.23367
-5.24388
-5.25463
-5.26594
-5.27781
-5.29026
-5.3033
-5.31693
-5.33117
-5.34601
-5.36146
-5.37753
-5.39421
-5.4115
-5.4294
-5.44789
-5.46697
-5.48662
-5.50682
-5.52755
-5.54878
-5.57047
-5.59257
-5.61503
-5.63781
-5.66084
-5.68407
-5.70743
-5.73084
-5.75423
-5.77749
-5.80055
-5.8233
-5.84564
-5.86746
-5.88864
-5.90906
-5.9286
-5.94711
-5.96447
-5.98052
-5.99512
-6.00812
-6.01938
-6.02872
-6.03598
-6.04101
-6.04364
-6.04368
-6.04095
-6.03527
-6.02643
-6.01424
-5.99846
-5.97888
-5.95524
-5.92728
-5.89471
-5.85723
-5.81451
-5.76621
-5.71198
-5.65143
-5.5842
-5.5099
-5.42814
-5.33856
-5.24081
-5.13461
-5.01952
-4.89485
-4.76028
-4.61571
-4.46087
-4.29547
-4.11919
-3.93173
-3.73277
-3.52198
-3.29904
-3.06364
-2.81548
-2.55427
-2.27978
-1.99181
-1.69023
-1.37494
-1.04595
-0.703347
-0.347316
0.0218292
0.403641
0.797535
1.20277
1.61849
2.04369
2.47717
2.91754
3.36339
3.81312
4.26492
4.7171
5.16767
5.61474
6.05628
6.49048
6.9154
7.32979
7.73208
8.12064
8.49422
8.85108
9.1905
9.51162
9.81338
10.0953
10.3569
10.598
10.8184
11.0184
11.1988
11.3601
11.5033
11.6292
11.7406
11.8331
11.9274
11.9576
-5.09567
-5.0961
-5.09667
-5.09718
-5.0976
-5.09795
-5.09826
-5.09854
-5.09879
-5.09903
-5.09926
-5.0995
-5.09975
-5.10002
-5.10032
-5.10066
-5.10104
-5.10148
-5.10197
-5.10253
-5.10317
-5.10389
-5.10471
-5.10563
-5.10666
-5.10782
-5.10911
-5.11056
-5.11216
-5.11394
-5.1159
-5.11806
-5.12043
-5.12302
-5.12586
-5.12895
-5.1323
-5.13594
-5.13987
-5.14412
-5.14869
-5.15361
-5.15888
-5.16452
-5.17056
-5.177
-5.18385
-5.19115
-5.19889
-5.2071
-5.21579
-5.22498
-5.23467
-5.2449
-5.25566
-5.26697
-5.27885
-5.29131
-5.30435
-5.31798
-5.33221
-5.34706
-5.36251
-5.37858
-5.39527
-5.41256
-5.43046
-5.44896
-5.46805
-5.48771
-5.50793
-5.52867
-5.54991
-5.57162
-5.59374
-5.61624
-5.63906
-5.66214
-5.68542
-5.70883
-5.7323
-5.75574
-5.77907
-5.8022
-5.82501
-5.84742
-5.86931
-5.89056
-5.91105
-5.93065
-5.94924
-5.96666
-5.98277
-5.99745
-6.01052
-6.02185
-6.03127
-6.03862
-6.04375
-6.04649
-6.04667
-6.0441
-6.0386
-6.02998
-6.01804
-6.00256
-5.98331
-5.96006
-5.93253
-5.90045
-5.86351
-5.82138
-5.77372
-5.72016
-5.66033
-5.59385
-5.52032
-5.43936
-5.3506
-5.25371
-5.14844
-5.03409
-4.91005
-4.77628
-4.6326
-4.47873
-4.31439
-4.13926
-3.95303
-3.75538
-3.54597
-3.32447
-3.09056
-2.84393
-2.58429
-2.31139
-2.02502
-1.72503
-1.41131
-1.08386
-0.74275
-0.38813
-0.0203015
0.360301
0.753112
1.1574
1.57231
1.9969
2.42997
2.8701
3.31593
3.76589
4.21805
4.67086
5.12223
5.5703
6.01316
6.4491
6.87662
7.29381
7.69883
8.0901
8.46634
8.82596
9.16807
9.49172
9.79594
10.0802
10.344
10.587
10.8092
11.011
11.1927
11.3551
11.499
11.6248
11.7356
11.8257
11.918
11.9369
-5.09427
-5.0948
-5.09551
-5.09615
-5.09666
-5.09709
-5.09747
-5.09782
-5.09813
-5.09842
-5.0987
-5.09899
-5.09928
-5.09959
-5.09993
-5.1003
-5.10071
-5.10117
-5.10169
-5.10228
-5.10294
-5.1037
-5.10455
-5.10551
-5.10659
-5.1078
-5.10915
-5.11065
-5.11232
-5.11416
-5.11619
-5.11843
-5.12087
-5.12355
-5.12646
-5.12962
-5.13306
-5.13677
-5.14078
-5.1451
-5.14974
-5.15472
-5.16006
-5.16577
-5.17186
-5.17835
-5.18526
-5.1926
-5.2004
-5.20865
-5.21738
-5.22661
-5.23634
-5.2466
-5.2574
-5.26875
-5.28066
-5.29315
-5.30623
-5.31989
-5.33417
-5.34905
-5.36454
-5.38066
-5.39739
-5.41473
-5.43269
-5.45125
-5.4704
-5.49012
-5.5104
-5.53122
-5.55253
-5.57431
-5.59652
-5.6191
-5.64201
-5.66519
-5.68857
-5.71208
-5.73566
-5.75921
-5.78265
-5.80588
-5.8288
-5.85131
-5.8733
-5.89465
-5.91524
-5.93494
-5.95361
-5.97112
-5.98732
-6.00207
-6.01523
-6.02663
-6.03614
-6.04358
-6.04881
-6.05166
-6.05196
-6.04954
-6.04421
-6.03579
-6.02409
-6.00889
-5.98996
-5.96707
-5.93996
-5.90833
-5.8719
-5.83032
-5.78326
-5.73034
-5.67117
-5.60537
-5.53254
-5.45229
-5.36424
-5.26814
-5.1636
-5.04971
-4.92614
-4.793
-4.65004
-4.49698
-4.33353
-4.15937
-3.97418
-3.77764
-3.56939
-3.3491
-3.11643
-2.87106
-2.6127
-2.34108
-2.05597
-1.75721
-1.44469
-1.11837
-0.77832
-0.42466
-0.0576743
0.322213
0.714453
1.1183
1.53293
1.95745
2.39066
2.83104
3.27735
3.72803
4.18093
4.6348
5.0875
5.53714
5.98239
6.42097
6.85105
7.27083
7.67849
8.07244
8.45128
8.81351
9.15808
9.48401
9.79037
10.0765
10.342
10.5866
10.8101
11.0129
11.1953
11.358
11.5017
11.6268
11.7363
11.8236
11.9141
11.9224
-5.09302
-5.09363
-5.09447
-5.09522
-5.09583
-5.09634
-5.09679
-5.0972
-5.09758
-5.09793
-5.09827
-5.09861
-5.09895
-5.0993
-5.09967
-5.10008
-5.10052
-5.10101
-5.10156
-5.10218
-5.10289
-5.10368
-5.10457
-5.10558
-5.10671
-5.10798
-5.10939
-5.11096
-5.1127
-5.11462
-5.11673
-5.11905
-5.12157
-5.12433
-5.12733
-5.13058
-5.13409
-5.13789
-5.14198
-5.14638
-5.1511
-5.15616
-5.16157
-5.16735
-5.17351
-5.18007
-5.18704
-5.19445
-5.2023
-5.21061
-5.2194
-5.22869
-5.23848
-5.24879
-5.25965
-5.27105
-5.28302
-5.29557
-5.30871
-5.32244
-5.33678
-5.35173
-5.3673
-5.38349
-5.4003
-5.41773
-5.43578
-5.45443
-5.47368
-5.49351
-5.5139
-5.53483
-5.55626
-5.57816
-5.6005
-5.62321
-5.64625
-5.66956
-5.69308
-5.71674
-5.74045
-5.76414
-5.78772
-5.81108
-5.83414
-5.85678
-5.87889
-5.90036
-5.92106
-5.94086
-5.95963
-5.97722
-5.99351
-6.00835
-6.02158
-6.03306
-6.04264
-6.05017
-6.05548
-6.05842
-6.05883
-6.05654
-6.05136
-6.04313
-6.03164
-6.01669
-5.99806
-5.97551
-5.94879
-5.9176
-5.88164
-5.84059
-5.79409
-5.74176
-5.68321
-5.61804
-5.54585
-5.46622
-5.37884
-5.28345
-5.17932
-5.06564
-4.94246
-4.80983
-4.66747
-4.5151
-4.3524
-4.17907
-3.99477
-3.79917
-3.59191
-3.37263
-3.14098
-2.89664
-2.63929
-2.36867
-2.08452
-1.78667
-1.47499
-1.14943
-0.81005
-0.456929
-0.0903372
0.289301
0.681443
1.08531
1.50011
1.92508
2.3589
2.7999
3.24711
3.69898
4.15305
4.6085
5.06353
5.51555
5.96316
6.40424
6.83685
7.25919
7.66944
8.06594
8.44721
8.8118
9.15854
9.48642
9.79452
10.0822
10.3489
10.5944
10.8187
11.0219
11.2044
11.3667
11.5098
11.6336
11.7413
11.8256
11.9142
11.9126
-5.09202
-5.0927
-5.09364
-5.09449
-5.09518
-5.09576
-5.09628
-5.09676
-5.09719
-5.0976
-5.09799
-5.09837
-5.09876
-5.09915
-5.09955
-5.09999
-5.10046
-5.10098
-5.10157
-5.10222
-5.10296
-5.1038
-5.10474
-5.1058
-5.10699
-5.10832
-5.1098
-5.11144
-5.11326
-5.11525
-5.11744
-5.11984
-5.12245
-5.12529
-5.12837
-5.13171
-5.13531
-5.13919
-5.14337
-5.14785
-5.15265
-5.15779
-5.16328
-5.16913
-5.17537
-5.182
-5.18905
-5.19653
-5.20445
-5.21283
-5.22169
-5.23104
-5.2409
-5.25129
-5.26221
-5.27369
-5.28574
-5.29837
-5.31158
-5.3254
-5.33983
-5.35487
-5.37054
-5.38684
-5.40376
-5.42131
-5.43947
-5.45826
-5.47764
-5.4976
-5.51813
-5.53921
-5.56079
-5.58284
-5.60533
-5.6282
-5.65141
-5.67488
-5.69857
-5.72238
-5.74626
-5.77011
-5.79384
-5.81735
-5.84055
-5.86333
-5.88557
-5.90715
-5.92795
-5.94785
-5.96671
-5.98439
-6.00075
-6.01565
-6.02894
-6.04047
-6.0501
-6.05768
-6.06305
-6.06606
-6.06655
-6.06435
-6.0593
-6.05122
-6.03992
-6.02521
-6.00685
-5.98462
-5.95825
-5.92747
-5.89197
-5.85141
-5.80544
-5.75367
-5.6957
-5.63112
-5.5595
-5.48044
-5.39371
-5.29887
-5.19479
-5.08112
-4.9583
-4.82611
-4.68427
-4.53249
-4.37046
-4.19785
-4.01433
-3.81955
-3.61313
-3.3947
-3.1639
-2.92038
-2.66383
-2.39395
-2.11049
-1.81326
-1.5021
-1.17696
-0.8379
-0.484917
-0.118278
0.261553
0.654021
1.05828
1.47367
1.89955
2.33443
2.77643
3.22489
3.67858
4.13485
4.5924
5.04962
5.5041
5.95412
6.39769
6.83282
7.25764
7.67033
8.06917
8.45263
8.81925
9.16782
9.49727
9.80669
10.0954
10.3629
10.6089
10.8333
11.0364
11.2184
11.3799
11.5218
11.6439
11.7495
11.8308
11.9171
11.9066
-5.09135
-5.09207
-5.09309
-5.09401
-5.09476
-5.09541
-5.09599
-5.09651
-5.097
-5.09745
-5.09788
-5.0983
-5.09871
-5.09913
-5.09956
-5.10002
-5.10051
-5.10106
-5.10167
-5.10236
-5.10314
-5.10402
-5.10501
-5.10613
-5.10737
-5.10877
-5.11031
-5.11203
-5.11392
-5.11599
-5.11826
-5.12074
-5.12344
-5.12636
-5.12953
-5.13295
-5.13664
-5.1406
-5.14486
-5.14942
-5.15431
-5.15952
-5.16509
-5.17102
-5.17734
-5.18405
-5.19117
-5.19872
-5.20671
-5.21517
-5.2241
-5.23353
-5.24347
-5.25394
-5.26495
-5.27651
-5.28864
-5.30136
-5.31467
-5.32859
-5.34313
-5.35829
-5.37407
-5.39049
-5.40754
-5.42523
-5.44354
-5.46247
-5.482
-5.50213
-5.52282
-5.54406
-5.56581
-5.58804
-5.6107
-5.63375
-5.65713
-5.68079
-5.70464
-5.72863
-5.75267
-5.77668
-5.80056
-5.82422
-5.84756
-5.87045
-5.8928
-5.91448
-5.93537
-5.95534
-5.97426
-5.99198
-6.00838
-6.0233
-6.03661
-6.04815
-6.05779
-6.06538
-6.07076
-6.0738
-6.07432
-6.07219
-6.06723
-6.05927
-6.04813
-6.03361
-6.01549
-5.99355
-5.96752
-5.93712
-5.90205
-5.86197
-5.8165
-5.76526
-5.70783
-5.64378
-5.57267
-5.49419
-5.40808
-5.31331
-5.20898
-5.09541
-4.97288
-4.84109
-4.69973
-4.5485
-4.38709
-4.21515
-4.03234
-3.83828
-3.63261
-3.41491
-3.1848
-2.94193
-2.68598
-2.41664
-2.13364
-1.83675
-1.52583
-1.20082
-0.861796
-0.508585
-0.141479
0.23895
0.632129
1.03716
1.45344
1.88057
2.31706
2.76097
3.21133
3.66693
4.12553
4.5855
5.04505
5.50204
5.95456
6.4006
6.83816
7.26533
7.68025
8.08117
8.46652
8.83482
9.18483
9.51544
9.82574
10.115
10.3828
10.6288
10.853
11.0554
11.2366
11.3968
11.537
11.6571
11.7602
11.8383
11.922
11.9034
-5.09102
-5.09176
-5.09282
-5.0938
-5.09461
-5.0953
-5.09592
-5.09648
-5.097
-5.09748
-5.09794
-5.09837
-5.0988
-5.09922
-5.09966
-5.10013
-5.10064
-5.1012
-5.10184
-5.10256
-5.10337
-5.1043
-5.10534
-5.1065
-5.10781
-5.10927
-5.11088
-5.11267
-5.11463
-5.11678
-5.11913
-5.12169
-5.12447
-5.12747
-5.13072
-5.13423
-5.13799
-5.14204
-5.14637
-5.15101
-5.15597
-5.16127
-5.16691
-5.17292
-5.1793
-5.18609
-5.19328
-5.20091
-5.20898
-5.21751
-5.22653
-5.23603
-5.24606
-5.25661
-5.2677
-5.27936
-5.29159
-5.30441
-5.31783
-5.33186
-5.34651
-5.36179
-5.37771
-5.39426
-5.41146
-5.42929
-5.44776
-5.46685
-5.48655
-5.50684
-5.52771
-5.54912
-5.57105
-5.59346
-5.6163
-5.63953
-5.66309
-5.68692
-5.71094
-5.73509
-5.75928
-5.78342
-5.80743
-5.83121
-5.85464
-5.87762
-5.90004
-5.92177
-5.94269
-5.96267
-5.98159
-5.9993
-6.01567
-6.03056
-6.04382
-6.05531
-6.06488
-6.07241
-6.07775
-6.08075
-6.08126
-6.07913
-6.07421
-6.06633
-6.0553
-6.04095
-6.02304
-6.00136
-5.97564
-5.94561
-5.91094
-5.87131
-5.82633
-5.77559
-5.71865
-5.65509
-5.58452
-5.50666
-5.42078
-5.32552
-5.22085
-5.10751
-4.9853
-4.85391
-4.71303
-4.56235
-4.40154
-4.23025
-4.04811
-3.85475
-3.64979
-3.43273
-3.20318
-2.96084
-2.70535
-2.43637
-2.15363
-1.85689
-1.54597
-1.22084
-0.88162
-0.528042
-0.160227
0.221088
0.615373
1.02184
1.43973
1.86843
2.30671
2.75289
3.20565
3.66356
4.12469
4.58727
5.04938
5.50897
5.96402
6.41251
6.85241
7.28176
7.69869
8.10142
8.48834
8.85796
9.209
9.54035
9.8511
10.1405
10.4082
10.6537
10.8771
11.0785
11.2583
11.4169
11.5551
11.6728
11.7732
11.848
11.9287
11.903
-5.09102
-5.09177
-5.09287
-5.09389
-5.09473
-5.09545
-5.09609
-5.09667
-5.0972
-5.09769
-5.09815
-5.09858
-5.09899
-5.09941
-5.09984
-5.1003
-5.10081
-5.10138
-5.10203
-5.10278
-5.10363
-5.10459
-5.10568
-5.1069
-5.10827
-5.10978
-5.11147
-5.11332
-5.11536
-5.11758
-5.12001
-5.12264
-5.12549
-5.12858
-5.1319
-5.13548
-5.13932
-5.14344
-5.14785
-5.15256
-5.15759
-5.16295
-5.16867
-5.17474
-5.1812
-5.18805
-5.19532
-5.20301
-5.21116
-5.21977
-5.22885
-5.23844
-5.24855
-5.25918
-5.27037
-5.28212
-5.29445
-5.30737
-5.3209
-5.33505
-5.34982
-5.36524
-5.38129
-5.39799
-5.41533
-5.43332
-5.45194
-5.47119
-5.49105
-5.51151
-5.53254
-5.55413
-5.57623
-5.5988
-5.62181
-5.6452
-5.66891
-5.69288
-5.71703
-5.74129
-5.76558
-5.78982
-5.81389
-5.83772
-5.86118
-5.88417
-5.90657
-5.92827
-5.94913
-5.96905
-5.98787
-6.00548
-6.02173
-6.03649
-6.0496
-6.06094
-6.07036
-6.07775
-6.08295
-6.08584
-6.08626
-6.08408
-6.07914
-6.07129
-6.06034
-6.04611
-6.02839
-6.00694
-5.98151
-5.95182
-5.91754
-5.87834
-5.83383
-5.78358
-5.7271
-5.66405
-5.59411
-5.5166
-5.43001
-5.33398
-5.22941
-5.11636
-4.99452
-4.86358
-4.72323
-4.57314
-4.41296
-4.24232
-4.06085
-3.86817
-3.6639
-3.44754
-3.21859
-2.97675
-2.72169
-2.45304
-2.1705
-1.87379
-1.56274
-1.23726
-0.897411
-0.543165
-0.174548
0.207875
0.603575
1.01182
1.43178
1.8626
2.30312
2.75184
3.20731
3.66794
4.13188
4.59729
5.06218
5.52449
5.98215
6.43309
6.87525
7.30665
7.72539
8.12966
8.51783
8.8884
9.24009
9.57177
9.88252
10.1717
10.4387
10.6833
10.9055
11.1055
11.2835
11.4401
11.5759
11.6909
11.7883
11.8596
11.937
11.905
-5.09135
-5.09211
-5.09322
-5.09427
-5.09513
-5.09586
-5.0965
-5.09708
-5.0976
-5.09806
-5.09849
-5.09888
-5.09926
-5.09964
-5.10004
-5.10048
-5.10098
-5.10155
-5.10222
-5.10299
-5.10386
-5.10487
-5.106
-5.10727
-5.10869
-5.11027
-5.11202
-5.11394
-5.11605
-5.11835
-5.12084
-5.12355
-5.12648
-5.12963
-5.13302
-5.13667
-5.14058
-5.14476
-5.14923
-5.15401
-5.1591
-5.16452
-5.1703
-5.17643
-5.18295
-5.18987
-5.1972
-5.20496
-5.21317
-5.22185
-5.23101
-5.24067
-5.25086
-5.26158
-5.27285
-5.28469
-5.29712
-5.31015
-5.32379
-5.33805
-5.35294
-5.36848
-5.38466
-5.4015
-5.41898
-5.43711
-5.45588
-5.47527
-5.49528
-5.51588
-5.53705
-5.55877
-5.581
-5.60369
-5.62681
-5.6503
-5.6741
-5.69814
-5.72234
-5.74663
-5.77093
-5.79514
-5.81918
-5.84294
-5.86631
-5.88919
-5.91145
-5.93299
-5.95367
-5.97338
-5.99199
-6.00936
-6.02537
-6.03988
-6.05272
-6.06378
-6.07295
-6.08009
-6.08507
-6.08776
-6.08803
-6.08572
-6.08071
-6.07283
-6.06192
-6.04778
-6.03022
-6.00899
-5.98384
-5.95448
-5.92059
-5.88181
-5.83776
-5.78801
-5.73208
-5.66965
-5.60006
-5.52172
-5.43402
-5.33788
-5.23363
-5.121
-4.99965
-4.86928
-4.72957
-4.58016
-4.42069
-4.25079
-4.07007
-3.87812
-3.67452
-3.45885
-3.23058
-2.98932
-2.73472
-2.46639
-2.18401
-1.88729
-1.57603
-1.25009
-0.909485
-0.554257
-0.184523
0.199296
0.596682
1.00693
1.42918
1.86249
2.30564
2.75721
3.21568
3.67938
4.14644
4.61495
5.08287
5.54809
6.00849
6.46194
6.90637
7.33975
7.76014
8.16574
8.55488
8.92607
9.27802
9.60961
9.91995
10.2083
10.4743
10.7176
10.9382
11.1362
11.3121
11.4663
11.5994
11.7115
11.8055
11.8733
11.9468
11.9095
-5.09201
-5.09278
-5.09392
-5.09499
-5.09584
-5.09655
-5.09717
-5.0977
-5.09817
-5.09857
-5.09894
-5.09926
-5.09957
-5.09989
-5.10024
-5.10064
-5.10112
-5.10169
-5.10236
-5.10314
-5.10405
-5.10509
-5.10626
-5.10758
-5.10906
-5.1107
-5.11251
-5.1145
-5.11668
-5.11904
-5.12161
-5.12438
-5.12737
-5.13059
-5.13405
-5.13776
-5.14172
-5.14596
-5.15049
-5.15531
-5.16046
-5.16593
-5.17176
-5.17794
-5.18451
-5.19148
-5.19887
-5.20669
-5.21496
-5.2237
-5.23292
-5.24266
-5.25291
-5.26371
-5.27506
-5.28699
-5.29951
-5.31263
-5.32637
-5.34073
-5.35573
-5.37137
-5.38767
-5.40461
-5.4222
-5.44044
-5.4593
-5.47879
-5.49888
-5.51955
-5.54079
-5.56256
-5.58482
-5.60753
-5.63065
-5.65412
-5.67788
-5.70186
-5.72596
-5.75012
-5.77425
-5.79829
-5.82211
-5.84564
-5.86875
-5.89133
-5.91329
-5.9345
-5.95483
-5.97418
-5.9924
-6.00939
-6.02502
-6.03915
-6.05162
-6.0623
-6.07111
-6.07793
-6.08262
-6.08505
-6.08509
-6.08262
-6.0775
-6.06958
-6.05869
-6.04465
-6.02725
-6.00626
-5.98141
-5.9524
-5.91892
-5.8806
-5.83705
-5.78787
-5.73251
-5.67028
-5.59962
-5.51984
-5.43192
-5.3362
-5.23247
-5.12042
-4.99974
-4.87009
-4.73116
-4.58256
-4.42395
-4.25491
-4.07504
-3.88392
-3.68109
-3.46612
-3.23853
-2.99787
-2.74373
-2.47572
-2.19349
-1.89673
-1.58522
-1.25879
-0.91742
-0.561154
-0.190151
0.195219
0.594446
1.00683
1.43153
1.86752
2.31357
2.76825
3.22998
3.69703
4.1675
4.6394
5.11062
5.57899
6.04233
6.49845
6.94523
7.38059
7.80258
8.20936
8.59927
8.97082
9.32271
9.65385
9.96335
10.2506
10.515
10.7565
10.9751
11.1708
11.3442
11.4955
11.6257
11.7345
11.8249
11.889
11.9583
11.9167
-5.09304
-5.09384
-5.09502
-5.09609
-5.09692
-5.09757
-5.0981
-5.09854
-5.09891
-5.09921
-5.09946
-5.09967
-5.09988
-5.1001
-5.10038
-5.10074
-5.10119
-5.10175
-5.10242
-5.10322
-5.10414
-5.10521
-5.10642
-5.10779
-5.10933
-5.11103
-5.1129
-5.11496
-5.1172
-5.11964
-5.12227
-5.12511
-5.12817
-5.13144
-5.13496
-5.13872
-5.14273
-5.14702
-5.15158
-5.15645
-5.16163
-5.16715
-5.17301
-5.17924
-5.18585
-5.19286
-5.20029
-5.20816
-5.21648
-5.22527
-5.23454
-5.24433
-5.25465
-5.2655
-5.27692
-5.28891
-5.30149
-5.31468
-5.32847
-5.3429
-5.35795
-5.37365
-5.38998
-5.40696
-5.42458
-5.44282
-5.46167
-5.48111
-5.50115
-5.52175
-5.54288
-5.56452
-5.58663
-5.60917
-5.63209
-5.65533
-5.67884
-5.70255
-5.72635
-5.75016
-5.77394
-5.79759
-5.82101
-5.84411
-5.86677
-5.88889
-5.91036
-5.93107
-5.9509
-5.96973
-5.98743
-6.00389