/*--------------------------------*- C++ -*----------------------------------*\
| =========                 |                                                 |
| \\      /  F ield         | OpenFOAM: The Open Source CFD Toolbox           |
|  \\    /   O peration     | Version:  1.4.2                                 |
|   \\  /    A nd           | Web:      http://www.openfoam.org               |
|    \\/     M anipulation  |                                                 |
\*---------------------------------------------------------------------------*/
FoamFile
{
    version     2.0;
    format      ascii;
    class       surfaceScalarField;
    object      phi;
    location    "800";
}
// * * * * * * * * * * * * * * * * * * * * * * * * * * * * * * * * * * * * * //

dimensions      [0 3 -1 0 0 0 0];

internalField   nonuniform List<scalar> 
24170
(
3.03918e-06
9.47108e-08
2.96659e-06
7.25931e-08
2.90197e-06
6.46221e-08
2.84073e-06
6.1233e-08
2.78296e-06
5.7767e-08
2.7289e-06
5.40683e-08
2.67845e-06
5.04458e-08
2.63147e-06
4.69786e-08
2.58781e-06
4.36599e-08
2.54733e-06
4.0482e-08
2.50989e-06
3.74401e-08
2.47536e-06
3.45238e-08
2.44365e-06
3.1712e-08
2.41468e-06
2.89658e-08
2.38848e-06
2.62082e-08
2.36521e-06
2.32622e-08
2.34543e-06
1.97824e-08
9.62209e-09
2.33581e-06
3.46199e-06
8.91627e-08
3.45386e-06
8.07237e-08
3.44441e-06
7.40677e-08
3.43379e-06
7.18604e-08
3.42224e-06
6.93171e-08
3.41016e-06
6.61432e-08
3.39779e-06
6.282e-08
3.38526e-06
5.95081e-08
3.3727e-06
5.62209e-08
3.36022e-06
5.29613e-08
3.34792e-06
4.97312e-08
3.33593e-06
4.65193e-08
3.32434e-06
4.32922e-08
3.31333e-06
3.99799e-08
3.3031e-06
3.64363e-08
3.29402e-06
3.23382e-08
3.28694e-06
2.6862e-08
1.73649e-08
3.2792e-06
3.82433e-06
7.70289e-08
3.8263e-06
7.87489e-08
3.8256e-06
7.47661e-08
3.82405e-06
7.34104e-08
3.82188e-06
7.14922e-08
3.81925e-06
6.87698e-08
3.81632e-06
6.57488e-08
3.81319e-06
6.26409e-08
3.80992e-06
5.9489e-08
3.80657e-06
5.63075e-08
3.8032e-06
5.31011e-08
3.79987e-06
4.98543e-08
3.79664e-06
4.65226e-08
3.7936e-06
4.30167e-08
3.79087e-06
3.91671e-08
3.78855e-06
3.46525e-08
3.78653e-06
2.8886e-08
2.08337e-08
3.78306e-06
4.2169e-06
6.46897e-08
4.22212e-06
7.35255e-08
4.2243e-06
7.25864e-08
4.22556e-06
7.2152e-08
4.22627e-06
7.07775e-08
4.22658e-06
6.84627e-08
4.22661e-06
6.57142e-08
4.22648e-06
6.27776e-08
4.22624e-06
5.97288e-08
4.22595e-06
5.65991e-08
4.22565e-06
5.33993e-08
4.22539e-06
5.01149e-08
4.22521e-06
4.66999e-08
4.22516e-06
4.30646e-08
4.22527e-06
3.9055e-08
4.2255e-06
3.44235e-08
4.22554e-06
2.88442e-08
2.20371e-08
4.22434e-06
4.6487e-06
5.33e-08
4.65544e-06
6.67766e-08
4.65932e-06
6.87148e-08
4.66212e-06
6.93512e-08
4.66432e-06
6.85766e-08
4.66609e-06
6.6689e-08
4.66757e-06
6.42311e-08
4.66887e-06
6.14824e-08
4.67005e-06
5.85512e-08
4.67116e-06
5.54873e-08
4.67225e-06
5.23107e-08
4.67335e-06
4.90126e-08
4.67449e-06
4.55533e-08
4.6757e-06
4.18566e-08
4.67695e-06
3.78034e-08
4.67814e-06
3.32341e-08
4.67897e-06
2.80125e-08
2.21933e-08
4.67882e-06
5.12456e-06
4.33393e-08
5.132e-06
5.9333e-08
5.13708e-06
6.36378e-08
5.14108e-06
6.53471e-08
5.1444e-06
6.52548e-08
5.14723e-06
6.38617e-08
5.14971e-06
6.17448e-08
5.15197e-06
5.92226e-08
5.15408e-06
5.64413e-08
5.1561e-06
5.34738e-08
5.15806e-06
5.03535e-08
5.15999e-06
4.70816e-08
5.16191e-06
4.36308e-08
5.16382e-06
3.99463e-08
5.16567e-06
3.59506e-08
5.16734e-06
3.15613e-08
5.1686e-06
2.67596e-08
2.17228e-08
5.16907e-06
5.64939e-06
3.49592e-08
5.65697e-06
5.17501e-08
5.66284e-06
5.77677e-08
5.66778e-06
6.04025e-08
5.67206e-06
6.09793e-08
5.67581e-06
6.01121e-08
5.67917e-06
5.83842e-08
5.68225e-06
5.61408e-08
5.68514e-06
5.35581e-08
5.68788e-06
5.07322e-08
5.69052e-06
4.77126e-08
5.69308e-06
4.45157e-08
5.69558e-06
4.11315e-08
5.698e-06
3.75312e-08
5.70027e-06
3.36777e-08
5.70228e-06
2.95477e-08
5.70386e-06
2.51857e-08
2.07909e-08
5.70479e-06
4.4112e-06
2.98661e-08
4.41651e-06
4.6444e-08
4.42103e-06
5.32484e-08
4.42498e-06
5.64511e-08
4.42851e-06
5.74531e-08
4.43168e-06
5.6941e-08
4.43457e-06
5.54966e-08
4.43724e-06
5.34709e-08
4.43974e-06
5.10548e-08
4.44211e-06
4.83578e-08
4.44439e-06
4.54406e-08
4.44657e-06
4.23307e-08
4.44867e-06
3.90319e-08
4.45067e-06
3.55341e-08
4.45252e-06
3.18257e-08
4.45415e-06
2.79144e-08
4.45547e-06
2.38685e-08
1.9876e-08
4.45638e-06
5.1446e-06
2.51258e-08
5.15008e-06
4.09634e-08
5.15507e-06
4.82507e-08
5.15963e-06
5.18909e-08
5.16381e-06
5.32769e-08
5.16764e-06
5.3112e-08
5.17118e-06
5.19609e-08
5.17447e-06
5.01738e-08
5.17758e-06
4.79515e-08
5.18052e-06
4.54144e-08
5.18333e-06
4.26341e-08
5.18601e-06
3.96494e-08
5.18856e-06
3.64786e-08
5.19097e-06
3.31299e-08
5.19318e-06
2.96144e-08
5.19513e-06
2.59633e-08
5.19674e-06
2.22552e-08
1.866e-08
5.19796e-06
6.0001e-06
2.08156e-08
6.00562e-06
3.54417e-08
6.01099e-06
4.2884e-08
6.01609e-06
4.67878e-08
6.02089e-06
4.84753e-08
6.02539e-06
4.86218e-08
6.02959e-06
4.7754e-08
6.03355e-06
4.62129e-08
6.0373e-06
4.42037e-08
6.04086e-06
4.18542e-08
6.04425e-06
3.9245e-08
6.04747e-06
3.6426e-08
6.05052e-06
3.34292e-08
6.05337e-06
3.02791e-08
6.05598e-06
2.70048e-08
6.0583e-06
2.36522e-08
6.06025e-06
2.03004e-08
1.70959e-08
6.06181e-06
6.99811e-06
1.69724e-08
7.00354e-06
3.00068e-08
7.00917e-06
3.72612e-08
7.01472e-06
4.12345e-08
7.02009e-06
4.31083e-08
7.02521e-06
4.35015e-08
7.03007e-06
4.28863e-08
7.0347e-06
4.15838e-08
7.03911e-06
3.97968e-08
7.04331e-06
3.76563e-08
7.04731e-06
3.52496e-08
7.0511e-06
3.26359e-08
7.05467e-06
2.98586e-08
7.05799e-06
2.69551e-08
7.06103e-06
2.39663e-08
7.06374e-06
2.09448e-08
7.06607e-06
1.79635e-08
1.51433e-08
7.06803e-06
8.1624e-06
1.35829e-08
8.16765e-06
2.47632e-08
8.17341e-06
3.14944e-08
8.17931e-06
3.5333e-08
8.18517e-06
3.72566e-08
8.19086e-06
3.78094e-08
8.19635e-06
3.7398e-08
8.20162e-06
3.63129e-08
8.20667e-06
3.4747e-08
8.2115e-06
3.28302e-08
8.21609e-06
3.06526e-08
8.22045e-06
2.82797e-08
8.22455e-06
2.5763e-08
8.22835e-06
2.3148e-08
8.23184e-06
2.04814e-08
8.23497e-06
1.78157e-08
8.23772e-06
1.5214e-08
1.27726e-08
8.24009e-06
9.52072e-06
1.05937e-08
9.5257e-06
1.97742e-08
9.53152e-06
2.56794e-08
9.53768e-06
2.91765e-08
9.54393e-06
3.10037e-08
9.55012e-06
3.16149e-08
9.55618e-06
3.1346e-08
9.56204e-06
3.04471e-08
9.5677e-06
2.90939e-08
9.57312e-06
2.74091e-08
9.57829e-06
2.54819e-08
9.58319e-06
2.33799e-08
9.58779e-06
2.1158e-08
9.59208e-06
1.88649e-08
9.59601e-06
1.65474e-08
9.59957e-06
1.42537e-08
9.60275e-06
1.20353e-08
9.96711e-09
9.60556e-06
1.11054e-05
7.92707e-09
1.11101e-05
1.50523e-08
1.11159e-05
1.98801e-08
1.11222e-05
2.28341e-08
1.11288e-05
2.44167e-08
1.11355e-05
2.49791e-08
1.1142e-05
2.47843e-08
1.11484e-05
2.40351e-08
1.11546e-05
2.28815e-08
1.11606e-05
2.14336e-08
1.11663e-05
1.97738e-08
1.11717e-05
1.79671e-08
1.11768e-05
1.6067e-08
1.11816e-05
1.41204e-08
1.1186e-05
1.21701e-08
1.119e-05
1.0257e-08
1.11936e-05
8.42164e-09
6.72106e-09
1.11968e-05
1.29541e-05
5.49347e-09
1.29586e-05
1.05551e-08
1.29643e-05
1.41113e-08
1.29708e-05
1.63355e-08
1.29777e-05
1.75295e-08
1.29848e-05
1.79365e-08
1.29918e-05
1.77452e-08
1.29987e-05
1.71065e-08
1.30055e-05
1.61378e-08
1.3012e-05
1.49291e-08
1.30182e-05
1.35507e-08
1.30241e-05
1.20592e-08
1.30297e-05
1.05019e-08
1.30349e-05
8.91954e-09
1.30397e-05
7.34821e-09
1.30441e-05
5.82033e-09
1.30482e-05
4.3664e-09
3.02919e-09
1.30519e-05
1.51108e-05
3.19286e-09
1.51151e-05
6.18073e-09
1.51209e-05
8.31543e-09
1.51276e-05
9.64586e-09
1.51348e-05
1.03187e-08
1.51423e-05
1.04712e-08
1.51498e-05
1.02171e-08
1.51573e-05
9.65175e-09
1.51646e-05
8.85356e-09
1.51716e-05
7.88598e-09
1.51783e-05
6.80078e-09
1.51848e-05
5.64111e-09
1.51908e-05
4.44358e-09
1.51965e-05
3.23964e-09
1.52018e-05
2.05644e-09
1.52067e-05
9.17652e-10
1.52112e-05
-1.55016e-10
-1.12998e-09
1.52154e-05
1.76267e-05
9.00157e-10
1.76312e-05
1.74205e-09
1.76372e-05
2.31866e-09
1.76442e-05
2.61577e-09
1.76519e-05
2.6566e-09
1.76599e-05
2.47513e-09
1.7668e-05
2.10749e-09
1.7676e-05
1.58954e-09
1.76839e-05
9.55029e-10
1.76916e-05
2.34902e-10
1.76989e-05
-5.42897e-10
1.77059e-05
-1.35327e-09
1.77125e-05
-2.17382e-09
1.77188e-05
-2.98482e-09
1.77246e-05
-3.76915e-09
1.773e-05
-4.51194e-09
1.77351e-05
-5.19921e-09
-5.80836e-09
1.77397e-05
1.78284e-05
-1.27913e-09
1.78326e-05
-2.49222e-09
1.78383e-05
-3.41674e-09
1.78451e-05
-4.11931e-09
1.78524e-05
-4.69088e-09
1.78601e-05
-5.19617e-09
1.78679e-05
-5.67369e-09
1.78756e-05
-6.1453e-09
1.78832e-05
-6.62126e-09
1.78905e-05
-7.10342e-09
1.78976e-05
-7.5881e-09
1.79043e-05
-8.06853e-09
1.79107e-05
-8.53652e-09
1.79167e-05
-8.98356e-09
1.79223e-05
-9.40159e-09
1.79276e-05
-9.78308e-09
1.79325e-05
-1.01201e-08
-1.0397e-08
1.79371e-05
1.58834e-05
-3.33359e-09
1.58873e-05
-6.42345e-09
1.58926e-05
-8.65337e-09
1.58986e-05
-1.01825e-08
1.59052e-05
-1.12356e-08
1.59119e-05
-1.19744e-08
1.59188e-05
-1.25054e-08
1.59255e-05
-1.29024e-08
1.59321e-05
-1.32144e-08
1.59385e-05
-1.34712e-08
1.59446e-05
-1.36895e-08
1.59504e-05
-1.38778e-08
1.59559e-05
-1.40392e-08
1.59611e-05
-1.41742e-08
1.5966e-05
-1.42815e-08
1.59706e-05
-1.43591e-08
1.59748e-05
-1.4403e-08
-1.44028e-08
1.59788e-05
1.41508e-05
-5.47049e-09
1.41548e-05
-1.03863e-08
1.41599e-05
-1.37511e-08
1.41656e-05
-1.59248e-08
1.41717e-05
-1.73134e-08
1.41779e-05
-1.81767e-08
1.41841e-05
-1.8685e-08
1.41901e-05
-1.896e-08
1.4196e-05
-1.90841e-08
1.42016e-05
-1.911e-08
1.4207e-05
-1.90704e-08
1.42121e-05
-1.89853e-08
1.42169e-05
-1.88666e-08
1.42215e-05
-1.87211e-08
1.42258e-05
-1.85526e-08
1.42298e-05
-1.8363e-08
1.42335e-05
-1.81516e-08
-1.79116e-08
1.4237e-05
1.26074e-05
-7.88153e-09
1.26117e-05
-1.46325e-08
1.26169e-05
-1.89324e-08
1.26225e-05
-2.15432e-08
1.26283e-05
-2.31062e-08
1.26341e-05
-2.39719e-08
1.26398e-05
-2.43693e-08
1.26453e-05
-2.44639e-08
1.26505e-05
-2.43659e-08
1.26556e-05
-2.41449e-08
1.26604e-05
-2.3845e-08
1.26649e-05
-2.34941e-08
1.26691e-05
-2.31098e-08
1.26731e-05
-2.27033e-08
1.26768e-05
-2.22817e-08
1.26803e-05
-2.18497e-08
1.26836e-05
-2.1409e-08
-2.09562e-08
1.26866e-05
1.12327e-05
-1.07865e-08
1.12374e-05
-1.93663e-08
1.12428e-05
-2.43166e-08
1.12484e-05
-2.7119e-08
1.1254e-05
-2.8679e-08
1.12594e-05
-2.94133e-08
1.12646e-05
-2.9604e-08
1.12696e-05
-2.9455e-08
1.12744e-05
-2.90966e-08
1.12788e-05
-2.86089e-08
1.1283e-05
-2.80424e-08
1.1287e-05
-2.74292e-08
1.12906e-05
-2.67895e-08
1.12941e-05
-2.61367e-08
1.12973e-05
-2.54796e-08
1.13003e-05
-2.48245e-08
1.1303e-05
-2.41752e-08
-2.35315e-08
1.13056e-05
1.00083e-05
-1.44576e-08
1.00137e-05
-2.47357e-08
1.00193e-05
-2.9916e-08
1.00248e-05
-3.26221e-08
1.00301e-05
-3.39862e-08
1.00351e-05
-3.44483e-08
1.00398e-05
-3.43366e-08
1.00443e-05
-3.38847e-08
1.00484e-05
-3.3233e-08
1.00523e-05
-3.24642e-08
1.00558e-05
-3.16298e-08
1.00592e-05
-3.0762e-08
1.00623e-05
-2.98809e-08
1.00651e-05
-2.89991e-08
1.00678e-05
-2.81256e-08
1.00702e-05
-2.7267e-08
1.00725e-05
-2.6429e-08
-2.56153e-08
1.00746e-05
8.91786e-06
-1.92202e-08
8.92391e-06
-3.07888e-08
8.92961e-06
-3.56093e-08
8.93488e-06
-3.78992e-08
8.93977e-06
-3.88713e-08
8.94425e-06
-3.893e-08
8.94835e-06
-3.84373e-08
8.95211e-06
-3.76422e-08
8.95556e-06
-3.66817e-08
8.95873e-06
-3.56331e-08
8.96164e-06
-3.45432e-08
8.96432e-06
-3.34405e-08
8.96678e-06
-3.23417e-08
8.96904e-06
-3.12569e-08
8.9711e-06
-3.01925e-08
8.97299e-06
-2.91544e-08
8.97471e-06
-2.81494e-08
-2.71863e-08
8.97628e-06
7.94686e-06
-2.54153e-08
7.95348e-06
-3.74042e-08
7.95898e-06
-4.11106e-08
7.96375e-06
-4.26696e-08
7.96796e-06
-4.30838e-08
7.97168e-06
-4.26463e-08
7.97497e-06
-4.17329e-08
7.97792e-06
-4.0589e-08
7.98057e-06
-3.93344e-08
7.98297e-06
-3.80321e-08
7.98515e-06
-3.67189e-08
7.98712e-06
-3.54163e-08
7.98892e-06
-3.41357e-08
7.99054e-06
-3.28825e-08
7.99201e-06
-3.16594e-08
7.99332e-06
-3.04688e-08
7.99449e-06
-2.93172e-08
-2.8219e-08
7.99552e-06
7.08223e-06
-3.33121e-08
7.08902e-06
-4.41965e-08
7.09386e-06
-4.59505e-08
7.09773e-06
-4.65422e-08
7.10096e-06
-4.63147e-08
7.10368e-06
-4.53615e-08
7.10599e-06
-4.40461e-08
7.10799e-06
-4.25906e-08
7.10974e-06
-4.10859e-08
7.11128e-06
-3.9574e-08
7.11264e-06
-3.808e-08
7.11385e-06
-3.66179e-08
7.1149e-06
-3.51936e-08
7.11583e-06
-3.38081e-08
7.11663e-06
-3.24587e-08
7.1173e-06
-3.1142e-08
7.11784e-06
-2.98595e-08
-2.86246e-08
7.11825e-06
6.31218e-06
-4.29747e-08
6.31832e-06
-5.03455e-08
6.32184e-06
-4.9466e-08
6.32435e-06
-4.90532e-08
6.32625e-06
-4.82159e-08
6.32768e-06
-4.67932e-08
6.32876e-06
-4.51275e-08
6.32958e-06
-4.34098e-08
6.33019e-06
-4.17e-08
6.33064e-06
-4.00215e-08
6.33095e-06
-3.83883e-08
6.33114e-06
-3.68077e-08
6.33123e-06
-3.52806e-08
6.33122e-06
-3.38031e-08
6.33113e-06
-3.23669e-08
6.33095e-06
-3.09588e-08
6.33065e-06
-2.9566e-08
-2.81765e-08
6.33021e-06
5.62586e-06
-5.39334e-08
5.62969e-06
-5.41747e-08
5.63085e-06
-5.06244e-08
5.63117e-06
-4.93785e-08
5.63092e-06
-4.7963e-08
5.63023e-06
-4.61111e-08
5.62926e-06
-4.41523e-08
5.62808e-06
-4.22321e-08
5.62675e-06
-4.03758e-08
5.62532e-06
-3.85876e-08
5.6238e-06
-3.6871e-08
5.62222e-06
-3.52265e-08
5.62059e-06
-3.36506e-08
5.61893e-06
-3.21359e-08
5.61723e-06
-3.06696e-08
5.6155e-06
-2.92272e-08
5.6137e-06
-2.77681e-08
-2.61701e-08
5.61169e-06
5.01053e-06
-6.21599e-08
5.00697e-06
-5.06101e-08
5.00193e-06
-4.55805e-08
4.99617e-06
-4.36242e-08
4.98988e-06
-4.16736e-08
4.98332e-06
-3.95492e-08
4.97664e-06
-3.74733e-08
4.96992e-06
-3.55146e-08
4.96321e-06
-3.36674e-08
4.95654e-06
-3.19212e-08
4.94994e-06
-3.02699e-08
4.94342e-06
-2.87078e-08
4.937e-06
-2.72284e-08
4.93069e-06
-2.58236e-08
4.9245e-06
-2.44819e-08
4.91845e-06
-2.3178e-08
4.91254e-06
-2.18534e-08
-2.00679e-08
4.90644e-06
4.39439e-06
4.34378e-06
4.2982e-06
4.25457e-06
4.2129e-06
4.17335e-06
4.13588e-06
4.10036e-06
4.06669e-06
4.03477e-06
4.0045e-06
3.97579e-06
3.94857e-06
3.92274e-06
3.89826e-06
3.87508e-06
3.85323e-06
3.83316e-06
1.81815e-09
-1.81811e-09
5.27277e-09
-3.45731e-09
9.36927e-09
-4.09871e-09
1.34341e-08
-4.06713e-09
1.70415e-08
-3.6096e-09
1.99455e-08
-2.90686e-09
2.20297e-08
-2.08709e-09
2.32601e-08
-1.23379e-09
2.36492e-08
-3.92549e-10
2.32457e-08
4.0036e-10
2.21288e-08
1.11394e-09
2.03924e-08
1.73392e-09
1.81191e-08
2.27131e-09
1.53711e-08
2.74655e-09
1.21864e-08
3.18388e-09
8.57186e-09
3.61373e-09
4.51085e-09
4.06032e-09
-2.33859e-11
4.53342e-09
-5.06505e-09
5.04048e-09
-1.06479e-08
5.58134e-09
-1.68086e-08
6.159e-09
-2.35874e-08
6.77715e-09
-3.10232e-08
7.43437e-09
-3.91507e-08
8.12662e-09
-4.7999e-08
8.84833e-09
-5.75913e-08
9.59307e-09
-6.7944e-08
1.03541e-08
-7.90669e-08
1.1125e-08
-9.09642e-08
1.18997e-08
-1.03634e-07
1.26726e-08
-1.17071e-07
1.34392e-08
-1.31265e-07
1.41954e-08
-1.46202e-07
1.49381e-08
-1.61865e-07
1.56649e-08
-1.78239e-07
1.63739e-08
-1.95303e-07
1.70639e-08
-2.13038e-07
1.77344e-08
-2.31425e-07
1.83851e-08
-2.50443e-07
1.90165e-08
-2.70074e-07
1.96293e-08
-2.903e-07
2.02243e-08
-3.11102e-07
2.08023e-08
-3.32465e-07
2.13645e-08
-3.54374e-07
2.19116e-08
-3.76815e-07
2.24445e-08
-3.99775e-07
2.29643e-08
-4.23245e-07
2.34722e-08
-4.47211e-07
2.39692e-08
-4.71666e-07
2.44562e-08
-4.96598e-07
2.49337e-08
-5.22e-07
2.54022e-08
-5.47862e-07
2.58619e-08
-5.74177e-07
2.63134e-08
-6.00935e-07
2.67566e-08
-6.28128e-07
2.71917e-08
-6.55747e-07
2.76186e-08
-6.83784e-07
2.80366e-08
-7.1223e-07
2.84453e-08
-7.41073e-07
2.88437e-08
-7.70302e-07
2.92307e-08
-7.99906e-07
2.96048e-08
-8.29868e-07
2.99646e-08
-8.60175e-07
3.03085e-08
-8.90807e-07
3.06348e-08
-9.21748e-07
3.09423e-08
-9.52977e-07
3.12305e-08
-9.84475e-07
3.14992e-08
-1.01622e-06
3.17483e-08
-1.0482e-06
3.19775e-08
-1.08039e-06
3.21861e-08
-1.11276e-06
3.23717e-08
-1.14529e-06
3.25322e-08
-1.17796e-06
3.26653e-08
-1.21079e-06
3.28317e-08
-1.24403e-06
3.32382e-08
-1.27757e-06
3.3547e-08
-1.31118e-06
3.36039e-08
-1.34488e-06
3.36987e-08
-1.37868e-06
3.38072e-08
-1.41259e-06
3.39083e-08
-1.44658e-06
3.39918e-08
-1.48063e-06
3.40523e-08
-1.51472e-06
3.40867e-08
-1.54881e-06
3.40934e-08
-1.58288e-06
3.40712e-08
-1.6169e-06
3.40191e-08
-1.65084e-06
3.39364e-08
-1.68466e-06
3.38229e-08
-1.71834e-06
3.36781e-08
-1.75184e-06
3.35017e-08
-1.78513e-06
3.32935e-08
-1.81818e-06
3.30537e-08
-1.85097e-06
3.27825e-08
-1.88344e-06
3.24801e-08
-1.91559e-06
3.21466e-08
-1.94737e-06
3.17822e-08
-1.97876e-06
3.13867e-08
-2.00972e-06
3.09596e-08
-2.04022e-06
3.05007e-08
-2.07024e-06
3.00095e-08
-2.09972e-06
2.94852e-08
-2.12865e-06
2.89262e-08
-2.15698e-06
2.83303e-08
-2.18467e-06
2.76949e-08
-2.21169e-06
2.70169e-08
-2.23798e-06
2.62932e-08
-2.2635e-06
2.55205e-08
-2.28819e-06
2.46948e-08
-2.31201e-06
2.38117e-08
-2.33487e-06
2.28662e-08
-2.35673e-06
2.18543e-08
-2.3775e-06
2.07722e-08
-2.39712e-06
1.96171e-08
-2.4155e-06
1.83862e-08
-2.43258e-06
1.7078e-08
-2.44827e-06
1.56916e-08
-2.4625e-06
1.42274e-08
-2.47519e-06
1.26867e-08
-2.48626e-06
1.10719e-08
-2.49565e-06
9.38549e-09
-2.50328e-06
7.6288e-09
-2.50908e-06
5.8011e-09
-2.51298e-06
3.90024e-09
-2.5149e-06
1.92461e-09
-2.51478e-06
-1.24533e-10
-2.51255e-06
-2.23133e-09
-2.50816e-06
-4.39063e-09
-2.50154e-06
-6.61611e-09
-2.49263e-06
-8.91545e-09
-2.48133e-06
-1.12961e-08
-2.46756e-06
-1.37657e-08
-2.45123e-06
-1.63307e-08
-2.43224e-06
-1.89945e-08
-2.41048e-06
-2.17604e-08
-2.38584e-06
-2.46322e-08
-2.35822e-06
-2.76126e-08
-2.32752e-06
-3.07009e-08
-2.29362e-06
-3.38948e-08
-2.25643e-06
-3.71913e-08
-2.21584e-06
-4.05856e-08
-2.17177e-06
-4.40688e-08
-2.12415e-06
-4.76293e-08
-2.07289e-06
-5.12539e-08
-2.01797e-06
-5.49266e-08
-1.95935e-06
-5.86268e-08
-1.89702e-06
-6.23332e-08
-1.83099e-06
-6.60257e-08
-1.76132e-06
-6.96785e-08
-1.68805e-06
-7.3262e-08
-1.6113e-06
-7.67489e-08
-1.53119e-06
-8.01109e-08
-1.44787e-06
-8.33124e-08
-1.36154e-06
-8.63215e-08
-1.27242e-06
-8.91156e-08
-1.18076e-06
-9.16601e-08
-1.08683e-06
-9.39258e-08
-9.90937e-07
-9.58873e-08
-8.93407e-07
-9.75273e-08
-7.94593e-07
-9.88167e-08
-6.94841e-07
-9.97514e-08
-5.94545e-07
-1.003e-07
-4.94091e-07
-1.00452e-07
-3.93827e-07
-1.00262e-07
-2.94285e-07
-9.95427e-08
-1.95977e-07
-9.83044e-08
-9.91568e-08
-9.68187e-08
-4.06999e-09
-9.50811e-08
8.83979e-08
-9.24623e-08
1.77462e-07
-8.90649e-08
2.63029e-07
-8.55627e-08
3.4493e-07
-8.19027e-08
4.22981e-07
-7.80551e-08
4.96968e-07
-7.39953e-08
5.6665e-07
-6.96876e-08
6.31707e-07
-6.50611e-08
6.91506e-07
-5.98036e-08
7.44994e-07
-5.34868e-08
7.88648e-07
-4.36488e-08
8.16464e-07
-2.781e-08
1.43165e-08
8.02152e-07
2.89909e-09
-4.72032e-09
6.63491e-09
-7.19648e-09
9.91108e-09
-7.37762e-09
1.24162e-08
-6.57551e-09
1.40891e-08
-5.2858e-09
1.49248e-08
-3.74643e-09
1.49211e-08
-2.08752e-09
1.40654e-08
-3.82122e-10
1.23691e-08
1.29981e-09
9.87704e-09
2.88872e-09
6.63165e-09
4.35594e-09
2.66509e-09
5.69747e-09
-1.99175e-09
6.92537e-09
-7.30514e-09
8.0573e-09
-1.32476e-08
9.12394e-09
-1.97992e-08
1.01631e-08
-2.69436e-08
1.12025e-08
-3.46718e-08
1.22595e-08
-4.29764e-08
1.33431e-08
-5.18569e-08
1.44603e-08
-6.13155e-08
1.56165e-08
-7.1352e-08
1.68131e-08
-8.19657e-08
1.80479e-08
-9.31552e-08
1.93164e-08
-1.04918e-07
2.06121e-08
-1.17252e-07
2.19278e-08
-1.30152e-07
2.32559e-08
-1.43614e-07
2.4589e-08
-1.57632e-07
2.59199e-08
-1.72198e-07
2.72422e-08
-1.87307e-07
2.85503e-08
-2.02949e-07
2.98397e-08
-2.19117e-07
3.11066e-08
-2.358e-07
3.23482e-08
-2.52989e-07
3.35626e-08
-2.70675e-07
3.47485e-08
-2.88847e-07
3.59054e-08
-3.07496e-07
3.70334e-08
-3.26612e-07
3.8133e-08
-3.46187e-07
3.92051e-08
-3.66213e-07
4.0251e-08
-3.86681e-07
4.12723e-08
-4.07584e-07
4.22705e-08
-4.28917e-07
4.32473e-08
-4.50673e-07
4.42043e-08
-4.72848e-07
4.51428e-08
-4.95436e-07
4.60643e-08
-5.18433e-07
4.69701e-08
-5.41837e-07
4.78614e-08
-5.65643e-07
4.87393e-08
-5.89847e-07
4.96048e-08
-6.14445e-07
5.04585e-08
-6.39435e-07
5.13006e-08
-6.64811e-07
5.21313e-08
-6.9057e-07
5.29503e-08
-7.16709e-07
5.37571e-08
-7.43222e-07
5.45509e-08
-7.70106e-07
5.53306e-08
-7.97355e-07
5.60948e-08
-8.24965e-07
5.68421e-08
-8.52929e-07
5.75708e-08
-8.81241e-07
5.8279e-08
-9.09896e-07
5.89652e-08
-9.38886e-07
5.96278e-08
-9.68208e-07
6.02653e-08
-9.97853e-07
6.0877e-08
-1.02782e-06
6.14622e-08
-1.05809e-06
6.20205e-08
-1.08866e-06
6.25508e-08
-1.11952e-06
6.30503e-08
-1.15067e-06
6.35129e-08
-1.18207e-06
6.3932e-08
-1.21371e-06
6.43124e-08
-1.24557e-06
6.46918e-08
-1.27746e-06
6.51199e-08
-1.30942e-06
6.55119e-08
-1.34162e-06
6.58023e-08
-1.37398e-06
6.60543e-08
-1.40644e-06
6.62757e-08
-1.439e-06
6.64601e-08
-1.4716e-06
6.66013e-08
-1.50425e-06
6.66941e-08
-1.53689e-06
6.67346e-08
-1.56952e-06
6.67199e-08
-1.6021e-06
6.6648e-08
-1.63459e-06
6.65173e-08
-1.66698e-06
6.63264e-08
-1.69923e-06
6.60743e-08
-1.73132e-06
6.57606e-08
-1.7632e-06
6.53848e-08
-1.79485e-06
6.49463e-08
-1.82624e-06
6.4445e-08
-1.85734e-06
6.38807e-08
-1.88811e-06
6.32538e-08
-1.91853e-06
6.25642e-08
-1.94856e-06
6.18121e-08
-1.97817e-06
6.09974e-08
-2.00733e-06
6.01198e-08
-2.03601e-06
5.91782e-08
-2.06418e-06
5.81709e-08
-2.09179e-06
5.70954e-08
-2.11881e-06
5.59482e-08
-2.1452e-06
5.47251e-08
-2.17093e-06
5.34213e-08
-2.19594e-06
5.20312e-08
-2.22019e-06
5.05482e-08
-2.24364e-06
4.89651e-08
-2.26621e-06
4.72737e-08
-2.28787e-06
4.54653e-08
-2.30853e-06
4.35315e-08
-2.32814e-06
4.14638e-08
-2.34663e-06
3.92546e-08
-2.36391e-06
3.68971e-08
-2.37991e-06
3.43857e-08
-2.39455e-06
3.1717e-08
-2.40775e-06
2.88897e-08
-2.41942e-06
2.59042e-08
-2.4295e-06
2.27632e-08
-2.4379e-06
1.94704e-08
-2.44455e-06
1.603e-08
-2.44937e-06
1.24447e-08
-2.45228e-06
8.71442e-09
-2.45322e-06
4.83629e-09
-2.45209e-06
8.03895e-10
-2.44886e-06
-3.35766e-09
-2.44347e-06
-7.62063e-09
-2.43586e-06
-1.19982e-08
-2.42596e-06
-1.65089e-08
-2.41371e-06
-2.1168e-08
-2.39901e-06
-2.599e-08
-2.38179e-06
-3.09872e-08
-2.36195e-06
-3.61698e-08
-2.3394e-06
-4.15457e-08
-2.31404e-06
-4.71218e-08
-2.28577e-06
-5.29025e-08
-2.2545e-06
-5.88894e-08
-2.22012e-06
-6.50816e-08
-2.18253e-06
-7.14751e-08
-2.14166e-06
-7.80619e-08
-2.09742e-06
-8.48295e-08
-2.04972e-06
-9.17605e-08
-1.99852e-06
-9.88319e-08
-1.94375e-06
-1.06014e-07
-1.8854e-06
-1.13273e-07
-1.82345e-06
-1.20572e-07
-1.75792e-06
-1.27867e-07
-1.68883e-06
-1.35114e-07
-1.61625e-06
-1.42259e-07
-1.54027e-06
-1.49245e-07
-1.46101e-06
-1.56013e-07
-1.37862e-06
-1.62506e-07
-1.29327e-06
-1.68659e-07
-1.20519e-06
-1.74408e-07
-1.11461e-06
-1.79698e-07
-1.02181e-06
-1.84466e-07
-9.27081e-07
-1.88658e-07
-8.30749e-07
-1.92223e-07
-7.33154e-07
-1.95122e-07
-6.34663e-07
-1.97311e-07
-5.35639e-07
-1.98774e-07
-4.36472e-07
-1.99469e-07
-3.37541e-07
-1.99388e-07
-2.39197e-07
-1.98609e-07
-1.41793e-07
-1.96949e-07
-4.55059e-08
-1.94594e-07
4.89857e-08
-1.91318e-07
1.40763e-07
-1.86865e-07
2.2943e-07
-1.81131e-07
3.14733e-07
-1.74373e-07
3.96449e-07
-1.67278e-07
4.74357e-07
-1.59811e-07
5.48279e-07
-1.5197e-07
6.18032e-07
-1.43742e-07
6.83415e-07
-1.35062e-07
7.44144e-07
-1.25783e-07
7.9977e-07
-1.15427e-07
8.49421e-07
-1.03139e-07
8.91735e-07
-8.59702e-08
9.23935e-07
-6.0015e-08
-1.04791e-08
9.48723e-07
2.46247e-09
-7.18501e-09
4.66932e-09
-9.40376e-09
5.99657e-09
-8.70521e-09
6.41836e-09
-6.99813e-09
5.96304e-09
-4.83189e-09
4.65315e-09
-2.43811e-09
2.50737e-09
5.63597e-11
-4.2395e-10
2.54713e-09
-4.07879e-09
4.95274e-09
-8.41589e-09
7.22421e-09
-1.34107e-08
9.34935e-09
-1.9044e-08
1.13299e-08
-2.52981e-08
1.31787e-08
-3.21585e-08
1.49173e-08
-3.96089e-08
1.6574e-08
-4.7625e-08
1.81788e-08
-5.6181e-08
1.97582e-08
-6.52542e-08
2.13323e-08
-7.48268e-08
2.29152e-08
-8.48842e-08
2.45171e-08
-9.54127e-08
2.61445e-08
-1.064e-07
2.77998e-08
-1.17835e-07
2.94828e-08
-1.29708e-07
3.11902e-08
-1.42013e-07
3.29177e-08
-1.54744e-07
3.46592e-08
-1.67896e-07
3.64087e-08
-1.81466e-07
3.81596e-08
-1.9545e-07
3.99058e-08
-2.09849e-07
4.16413e-08
-2.24658e-07
4.3361e-08
-2.39878e-07
4.50605e-08
-2.55507e-07
4.6736e-08
-2.71544e-07
4.83847e-08
-2.87986e-07
5.00046e-08
-3.04833e-07
5.15945e-08
-3.22082e-07
5.31537e-08
-3.39733e-07
5.46824e-08
-3.57782e-07
5.6181e-08
-3.76228e-07
5.76505e-08
-3.95069e-07
5.90922e-08
-4.14303e-07
6.05074e-08
-4.33928e-07
6.18978e-08
-4.53944e-07
6.32651e-08
-4.74349e-07
6.46109e-08
-4.95142e-07
6.59368e-08
-5.1632e-07
6.72445e-08
-5.37884e-07
6.85351e-08
-5.59832e-07
6.98098e-08
-5.82162e-07
7.10697e-08
-6.04873e-07
7.23156e-08
-6.27963e-07
7.35478e-08
-6.5143e-07
7.47667e-08
-6.75272e-07
7.5972e-08
-6.99485e-07
7.71634e-08
-7.24068e-07
7.83399e-08
-7.49017e-07
7.95004e-08
-7.7433e-07
8.06434e-08
-8.00001e-07
8.17671e-08
-8.26028e-07
8.28698e-08
-8.52405e-07
8.39491e-08
-8.79128e-07
8.5003e-08
-9.0619e-07
8.60292e-08
-9.33587e-07
8.70256e-08
-9.61311e-07
8.79903e-08
-9.89355e-07
8.89213e-08
-1.01771e-06
8.98169e-08
-1.04637e-06
9.06753e-08
-1.07531e-06
9.14944e-08
-1.10453e-06
9.22708e-08
-1.13402e-06
9.29999e-08
-1.16376e-06
9.36772e-08
-1.19375e-06
9.43044e-08
-1.22395e-06
9.48913e-08
-1.25428e-06
9.54473e-08
-1.28472e-06
9.59547e-08
-1.31531e-06
9.63937e-08
-1.34603e-06
9.67731e-08
-1.37685e-06
9.70935e-08
-1.40774e-06
9.73504e-08
-1.43868e-06
9.75382e-08
-1.46963e-06
9.76519e-08
-1.50058e-06
9.7687e-08
-1.5315e-06
9.76401e-08
-1.56236e-06
9.75082e-08
-1.59314e-06
9.72891e-08
-1.62379e-06
9.69809e-08
-1.6543e-06
9.65823e-08
-1.68463e-06
9.60921e-08
-1.71475e-06
9.55096e-08
-1.74464e-06
9.48342e-08
-1.77426e-06
9.40655e-08
-1.80358e-06
9.32034e-08
-1.83258e-06
9.22478e-08
-1.86121e-06
9.11988e-08
-1.88946e-06
9.00563e-08
-1.91728e-06
8.88199e-08
-1.94465e-06
8.74889e-08
-1.97153e-06
8.60614e-08
-1.9979e-06
8.45347e-08
-2.02371e-06
8.29049e-08
-2.04892e-06
8.11668e-08
-2.07351e-06
7.93143e-08
-2.09743e-06
7.73402e-08
-2.12064e-06
7.52359e-08
-2.14308e-06
7.29917e-08
-2.16471e-06
7.05964e-08
-2.18547e-06
6.80378e-08
-2.20531e-06
6.53031e-08
-2.22416e-06
6.23794e-08
-2.24195e-06
5.9254e-08
-2.25861e-06
5.59151e-08
-2.27407e-06
5.23522e-08
-2.28824e-06
4.85568e-08
-2.30104e-06
4.45235e-08
-2.3124e-06
4.02497e-08
-2.32224e-06
3.5736e-08
-2.33046e-06
3.09858e-08
-2.33699e-06
2.60041e-08
-2.34176e-06
2.07968e-08
-2.34469e-06
1.53684e-08
-2.34569e-06
9.71864e-09
-2.3447e-06
3.84347e-09
-2.34165e-06
-2.24397e-09
-2.3365e-06
-8.50341e-09
-2.32921e-06
-1.49187e-08
-2.3197e-06
-2.15108e-08
-2.3079e-06
-2.83027e-08
-2.29375e-06
-3.53163e-08
-2.27717e-06
-4.25712e-08
-2.25807e-06
-5.00848e-08
-2.23637e-06
-5.78715e-08
-2.21197e-06
-6.59429e-08
-2.18478e-06
-7.43078e-08
-2.15471e-06
-8.29711e-08
-2.12167e-06
-9.19339e-08
-2.08555e-06
-1.01193e-07
-2.04629e-06
-1.10742e-07
-2.00378e-06
-1.20565e-07
-1.95797e-06
-1.30644e-07
-1.90878e-06
-1.40951e-07
-1.85616e-06
-1.5145e-07
-1.80008e-06
-1.62097e-07
-1.74052e-06
-1.72838e-07
-1.67747e-06
-1.83617e-07
-1.61097e-06
-1.94369e-07
-1.54106e-06
-2.05026e-07
-1.46781e-06
-2.15508e-07
-1.39132e-06
-2.25728e-07
-1.31174e-06
-2.35595e-07
-1.22922e-06
-2.45027e-07
-1.14395e-06
-2.53929e-07
-1.05615e-06
-2.62199e-07
-9.66093e-07
-2.69759e-07
-8.74042e-07
-2.76516e-07
-7.80309e-07
-2.8239e-07
-6.85224e-07
-2.87309e-07
-5.89131e-07
-2.91213e-07
-4.92399e-07
-2.94045e-07
-3.95387e-07
-2.95785e-07
-2.98483e-07
-2.96372e-07
-2.02044e-07
-2.95826e-07
-1.06454e-07
-2.94198e-07
-1.20278e-08
-2.91374e-07
8.0489e-08
-2.87109e-07
1.70334e-07
-2.81162e-07
2.57232e-07
-2.73763e-07
3.41022e-07
-2.6492e-07
4.21573e-07
-2.54925e-07
4.98594e-07
-2.443e-07
5.7188e-07
-2.331e-07
6.41261e-07
-2.21353e-07
7.06578e-07
-2.0906e-07
7.67663e-07
-1.96148e-07
8.24298e-07
-1.82418e-07
8.7618e-07
-1.67308e-07
9.22842e-07
-1.498e-07
9.63896e-07
-1.27022e-07
9.99526e-07
-9.56423e-08
-4.53605e-08
1.03441e-06
1.11542e-09
-8.30082e-09
1.26624e-09
-9.55296e-09
4.57016e-10
-7.89573e-09
-1.23997e-09
-5.30141e-09
-3.76521e-09
-2.3074e-09
-7.04966e-09
8.45196e-10
-1.10024e-08
4.00792e-09
-1.55441e-08
7.08745e-09
-2.06352e-08
1.00426e-08
-2.62617e-08
1.28495e-08
-3.24137e-08
1.55005e-08
-3.90838e-08
1.79994e-08
-4.62645e-08
2.03589e-08
-5.39458e-08
2.25984e-08
-6.21136e-08
2.47418e-08
-7.07488e-08
2.68142e-08
-7.98295e-08
2.88392e-08
-8.93342e-08
3.08372e-08
-9.92431e-08
3.28242e-08
-1.09538e-07
3.48127e-08
-1.20205e-07
3.68109e-08
-1.31229e-07
3.88241e-08
-1.42601e-07
4.08543e-08
-1.54312e-07
4.29013e-08
-1.66357e-07
4.49629e-08
-1.78733e-07
4.70356e-08
-1.91439e-07
4.91149e-08
-2.04475e-07
5.11959e-08
-2.17842e-07
5.32736e-08
-2.31543e-07
5.5343e-08
-2.45581e-07
5.73994e-08
-2.59959e-07
5.94387e-08
-2.7468e-07
6.14574e-08
-2.89748e-07
6.34527e-08
-3.05166e-07
6.54222e-08
-3.20937e-07
6.73645e-08
-3.37062e-07
6.92787e-08
-3.53545e-07
7.11645e-08
-3.70387e-07
7.30223e-08
-3.8759e-07
7.48525e-08
-4.05154e-07
7.66562e-08
-4.23081e-07
7.84346e-08
-4.41371e-07
8.0189e-08
-4.60026e-07
8.19208e-08
-4.79045e-07
8.36314e-08
-4.98429e-07
8.53223e-08
-5.18178e-07
8.69948e-08
-5.38292e-07
8.86501e-08
-5.58771e-07
9.02892e-08
-5.79614e-07
9.19128e-08
-6.00821e-07
9.35216e-08
-6.22389e-07
9.51157e-08
-6.44318e-07
9.66951e-08
-6.66605e-07
9.82594e-08
-6.8925e-07
9.98077e-08
-7.12249e-07
1.01339e-07
-7.356e-07
1.02852e-07
-7.593e-07
1.04344e-07
-7.83346e-07
1.05813e-07
-8.07733e-07
1.07258e-07
-8.32459e-07
1.08675e-07
-8.57517e-07
1.10062e-07
-8.82903e-07
1.11416e-07
-9.08611e-07
1.12734e-07
-9.34633e-07
1.14014e-07
-9.60963e-07
1.15252e-07
-9.87591e-07
1.16445e-07
-1.01451e-06
1.1759e-07
-1.04169e-06
1.18683e-07
-1.06914e-06
1.19721e-07
-1.09684e-06
1.20698e-07
-1.12478e-06
1.2161e-07
-1.15293e-06
1.22456e-07
-1.18127e-06
1.23236e-07
-1.20978e-06
1.23952e-07
-1.23842e-06
1.24598e-07
-1.2672e-06
1.25167e-07
-1.29608e-06
1.25657e-07
-1.32505e-06
1.26063e-07
-1.35408e-06
1.26381e-07
-1.38314e-06
1.26604e-07
-1.41222e-06
1.26728e-07
-1.44128e-06
1.26746e-07
-1.4703e-06
1.26657e-07
-1.49924e-06
1.26455e-07
-1.52809e-06
1.26139e-07
-1.55681e-06
1.25705e-07
-1.58538e-06
1.25152e-07
-1.61377e-06
1.2448e-07
-1.64195e-06
1.23685e-07
-1.66988e-06
1.22769e-07
-1.69755e-06
1.2173e-07
-1.72491e-06
1.20569e-07
-1.75195e-06
1.19284e-07
-1.77862e-06
1.17877e-07
-1.80492e-06
1.16346e-07
-1.83079e-06
1.14692e-07
-1.85621e-06
1.12912e-07
-1.88115e-06
1.11005e-07
-1.90559e-06
1.08966e-07
-1.92947e-06
1.06791e-07
-1.95278e-06
1.04472e-07
-1.97546e-06
1.02002e-07
-1.9975e-06
9.93706e-08
-2.01883e-06
9.65667e-08
-2.03941e-06
9.35769e-08
-2.0592e-06
9.03862e-08
-2.07814e-06
8.69782e-08
-2.09617e-06
8.33358e-08
-2.11324e-06
7.94414e-08
-2.12926e-06
7.5278e-08
-2.14417e-06
7.08291e-08
-2.1579e-06