/*--------------------------------*- C++ -*----------------------------------*\
| =========                 |                                                 |
| \\      /  F ield         | OpenFOAM: The Open Source CFD Toolbox           |
|  \\    /   O peration     | Version:  1.4.2                                 |
|   \\  /    A nd           | Web:      http://www.openfoam.org               |
|    \\/     M anipulation  |                                                 |
\*---------------------------------------------------------------------------*/
FoamFile
{
    version     2.0;
    format      ascii;
    class       volVectorField;
    object      U;
    location    "800";
}
// * * * * * * * * * * * * * * * * * * * * * * * * * * * * * * * * * * * * * //

dimensions      [0 1 -1 0 0 0 0];

internalField   nonuniform List<vector> 
12225
(
(9.77631 0.0380806 0)
(9.58165 0.0388038 0)
(9.36738 0.0370214 0)
(9.16174 0.0361561 0)
(8.97092 0.0352101 0)
(8.79277 0.0340378 0)
(8.62611 0.0327673 0)
(8.47063 0.0314624 0)
(8.326 0.0301368 0)
(8.19177 0.0287956 0)
(8.06746 0.0274424 0)
(7.95265 0.0260773 0)
(7.84696 0.0246932 0)
(7.75012 0.0232702 0)
(7.66201 0.0217619 0)
(7.58282 0.020048 0)
(7.51427 0.0178676 0)
(7.44971 0.00471813 0)
(10.004 0.0585746 0)
(10.0077 0.0555245 0)
(9.98308 0.0518568 0)
(9.95111 0.0514235 0)
(9.91831 0.0511416 0)
(9.8842 0.0504787 0)
(9.84878 0.0496389 0)
(9.81264 0.0487128 0)
(9.77624 0.0476998 0)
(9.73993 0.0465909 0)
(9.70402 0.0453796 0)
(9.6688 0.0440515 0)
(9.6346 0.042574 0)
(9.60179 0.0408801 0)
(9.57088 0.0388259 0)
(9.54264 0.0360731 0)
(9.51862 0.0317834 0)
(9.49686 0.0221192 0)
(10.0174 0.0524277 0)
(10.037 0.0526686 0)
(10.0383 0.0512382 0)
(10.0338 0.0521803 0)
(10.0285 0.0527996 0)
(10.0223 0.0527798 0)
(10.0149 0.0524521 0)
(10.0069 0.05196 0)
(9.99849 0.0513213 0)
(9.98978 0.0505336 0)
(9.98094 0.049589 0)
(9.9721 0.0484622 0)
(9.96344 0.0470975 0)
(9.95516 0.0453852 0)
(9.94752 0.0431075 0)
(9.94081 0.0398096 0)
(9.93534 0.0344669 0)
(9.92777 0.0245436 0)
(10.0158 0.0449535 0)
(10.0376 0.0501271 0)
(10.0459 0.0506552 0)
(10.0489 0.0521608 0)
(10.051 0.0531289 0)
(10.0522 0.053415 0)
(10.0526 0.0533349 0)
(10.0524 0.0530354 0)
(10.0519 0.0525458 0)
(10.0512 0.0518694 0)
(10.0505 0.0509969 0)
(10.0498 0.0498959 0)
(10.0493 0.0484981 0)
(10.049 0.0466767 0)
(10.049 0.0442032 0)
(10.0495 0.0406702 0)
(10.0501 0.0354133 0)
(10.0486 0.027527 0)
(10.0125 0.0370822 0)
(10.0331 0.0461488 0)
(10.0446 0.0485751 0)
(10.0509 0.0506851 0)
(10.0561 0.0519831 0)
(10.0603 0.0525077 0)
(10.0638 0.0525866 0)
(10.0667 0.0523839 0)
(10.0694 0.051946 0)
(10.0718 0.0512831 0)
(10.0742 0.0503864 0)
(10.0765 0.0492215 0)
(10.0789 0.0477175 0)
(10.0814 0.0457511 0)
(10.0841 0.0431207 0)
(10.0868 0.0395206 0)
(10.0892 0.0345835 0)
(10.0899 0.0280891 0)
(10.0094 0.0302346 0)
(10.0273 0.0413835 0)
(10.0399 0.0454318 0)
(10.0483 0.0482149 0)
(10.0552 0.049905 0)
(10.0612 0.0507047 0)
(10.0663 0.0509599 0)
(10.0709 0.0508556 0)
(10.0752 0.0504618 0)
(10.0792 0.0498031 0)
(10.083 0.0488767 0)
(10.0868 0.0476514 0)
(10.0906 0.0460619 0)
(10.0943 0.044001 0)
(10.0981 0.0413112 0)
(10.1016 0.0377913 0)
(10.1046 0.0332768 0)
(10.1063 0.0278491 0)
(10.0067 0.0244784 0)
(10.0216 0.0363841 0)
(10.0341 0.0415854 0)
(10.0434 0.0449351 0)
(10.0514 0.0470154 0)
(10.0585 0.0481123 0)
(10.0648 0.0485687 0)
(10.0704 0.048585 0)
(10.0757 0.0482527 0)
(10.0807 0.047611 0)
(10.0854 0.0466664 0)
(10.09 0.0453966 0)
(10.0945 0.0437498 0)
(10.0989 0.0416439 0)
(10.1031 0.0389706 0)
(10.1069 0.0356165 0)
(10.1102 0.0315409 0)
(10.1125 0.0269289 0)
(10.005 0.0203589 0)
(10.0173 0.032208 0)
(10.0291 0.03801 0)
(10.0386 0.0417135 0)
(10.047 0.0440547 0)
(10.0545 0.0453647 0)
(10.0614 0.0459794 0)
(10.0677 0.0461023 0)
(10.0735 0.0458338 0)
(10.079 0.0452218 0)
(10.0843 0.0442811 0)
(10.0893 0.042999 0)
(10.0942 0.0413383 0)
(10.0989 0.0392411 0)
(10.1033 0.0366388 0)
(10.1073 0.0334758 0)
(10.1107 0.0297709 0)
(10.1133 0.0257251 0)
(10.0039 0.0172052 0)
(10.0141 0.0286239 0)
(10.0249 0.0347193 0)
(10.0342 0.0386491 0)
(10.0426 0.0411703 0)
(10.0504 0.042637 0)
(10.0576 0.043374 0)
(10.0642 0.0435821 0)
(10.0704 0.0433679 0)
(10.0763 0.0427862 0)
(10.0819 0.0418589 0)
(10.0872 0.0405821 0)
(10.0923 0.038932 0)
(10.0971 0.0368713 0)
(10.1016 0.0343619 0)
(10.1057 0.0313872 0)
(10.1092 0.0279974 0)
(10.1121 0.0243867 0)
(10.0029 0.0143506 0)
(10.0112 0.0249805 0)
(10.0208 0.0311341 0)
(10.0297 0.0351691 0)
(10.0379 0.0378058 0)
(10.0457 0.0393928 0)
(10.0529 0.0402316 0)
(10.0597 0.0405161 0)
(10.0661 0.0403549 0)
(10.0722 0.039808 0)
(10.078 0.0389043 0)
(10.0835 0.0376495 0)
(10.0888 0.0360339 0)
(10.0937 0.0340407 0)
(10.0983 0.0316585 0)
(10.1024 0.0288992 0)
(10.106 0.0258291 0)
(10.109 0.0226259 0)
(10.0021 0.0117934 0)
(10.0088 0.0213625 0)
(10.0171 0.0273381 0)
(10.0253 0.0313325 0)
(10.0331 0.033993 0)
(10.0406 0.035641 0)
(10.0477 0.0365436 0)
(10.0545 0.0368817 0)
(10.061 0.0367627 0)
(10.0671 0.0362497 0)
(10.073 0.0353776 0)
(10.0786 0.0341616 0)
(10.0838 0.0326058 0)
(10.0888 0.0307117 0)
(10.0933 0.0284885 0)
(10.0975 0.0259671 0)
(10.1011 0.0232179 0)
(10.1042 0.0203956 0)
(10.0015 0.0095296 0)
(10.0068 0.0178464 0)
(10.0139 0.0234123 0)
(10.0212 0.0272141 0)
(10.0284 0.0297897 0)
(10.0355 0.0314212 0)
(10.0424 0.0323344 0)
(10.049 0.0326912 0)
(10.0553 0.0325942 0)
(10.0614 0.0321073 0)
(10.0672 0.0312701 0)
(10.0726 0.0301065 0)
(10.0778 0.0286324 0)
(10.0827 0.0268636 0)
(10.0872 0.0248238 0)
(10.0912 0.0225536 0)
(10.0948 0.0201196 0)
(10.0981 0.017651 0)
(10.0011 0.00753622 0)
(10.0052 0.0144873 0)
(10.0111 0.0194304 0)
(10.0176 0.022887 0)
(10.0242 0.0252616 0)
(10.0307 0.0267877 0)
(10.0372 0.0276479 0)
(10.0435 0.0279801 0)
(10.0495 0.0278781 0)
(10.0554 0.0274042 0)
(10.0609 0.0266009 0)
(10.0662 0.0254985 0)
(10.0712 0.024122 0)
(10.0759 0.0224968 0)
(10.0802 0.0206544 0)
(10.0842 0.0186377 0)
(10.0877 0.0165057 0)
(10.091 0.0143623 0)
(10.0009 0.00577 0)
(10.0041 0.011308 0)
(10.0089 0.0154482 0)
(10.0146 0.0184118 0)
(10.0205 0.0204676 0)
(10.0264 0.0217949 0)
(10.0324 0.0225331 0)
(10.0383 0.0227931 0)
(10.044 0.0226559 0)
(10.0495 0.0221793 0)
(10.0547 0.0214058 0)
(10.0598 0.0203693 0)
(10.0645 0.0190996 0)
(10.0689 0.0176271 0)
(10.0731 0.0159855 0)
(10.0768 0.0142152 0)
(10.0803 0.0123653 0)
(10.0834 0.0105179 0)
(10.0007 0.00417679 0)
(10.0032 0.00829575 0)
(10.0073 0.011493 0)
(10.0121 0.0138259 0)
(10.0174 0.0154483 0)
(10.0228 0.016483 0)
(10.0282 0.0170287 0)
(10.0337 0.0171675 0)
(10.039 0.0169639 0)
(10.0441 0.0164677 0)
(10.049 0.015718 0)
(10.0537 0.0147483 0)
(10.0581 0.013589 0)
(10.0623 0.0122707 0)
(10.0662 0.0108251 0)
(10.0697 0.00928717 0)
(10.073 0.00769601 0)
(10.0761 0.00611554 0)
(10.0005 0.00269719 0)
(10.0026 0.00540208 0)
(10.0061 0.00755031 0)
(10.0103 0.00912942 0)
(10.0149 0.0102099 0)
(10.0198 0.0108616 0)
(10.0248 0.0111451 0)
(10.0298 0.0111135 0)
(10.0347 0.0108122 0)
(10.0395 0.0102785 0)
(10.044 0.00954453 0)
(10.0484 0.00863896 0)
(10.0525 0.00758883 0)
(10.0564 0.0064208 0)
(10.0601 0.00516173 0)
(10.0634 0.00383937 0)
(10.0666 0.0024838 0)
(10.0695 0.00114388 0)
(10.0005 0.00126578 0)
(10.0023 0.00254201 0)
(10.0053 0.00355387 0)
(10.009 0.00427227 0)
(10.0133 0.00471251 0)
(10.0177 0.00489847 0)
(10.0223 0.00485475 0)
(10.0269 0.00460596 0)
(10.0315 0.00417557 0)
(10.0359 0.00358551 0)
(10.0402 0.00285634 0)
(10.0443 0.00200812 0)
(10.0481 0.00106071 0)
(10.0518 3.39533e-05 0)
(10.0552 -0.00105233 0)
(10.0584 -0.00217805 0)
(10.0614 -0.00332134 0)
(10.0642 -0.00444488 0)
(10.0004 -0.000117866 0)
(10.0021 -0.000247806 0)
(10.005 -0.000384736 0)
(10.0085 -0.000555347 0)
(10.0125 -0.000785766 0)
(10.0168 -0.00109318 0)
(10.0211 -0.00148671 0)
(10.0255 -0.00196977 0)
(10.0298 -0.00254141 0)
(10.034 -0.00319717 0)
(10.0381 -0.00392973 0)
(10.0419 -0.00472984 0)
(10.0456 -0.00558683 0)
(10.0491 -0.00648906 0)
(10.0523 -0.00742433 0)
(10.0554 -0.00837988 0)
(10.0583 -0.00934102 0)
(10.061 -0.0102803 0)
(10.0004 -0.001432 0)
(10.0022 -0.00288215 0)
(10.0052 -0.00407846 0)
(10.0088 -0.00505495 0)
(10.0128 -0.00588478 0)
(10.0171 -0.006627 0)
(10.0214 -0.00732362 0)
(10.0257 -0.0080052 0)
(10.0299 -0.00869259 0)
(10.034 -0.00939824 0)
(10.0379 -0.0101281 0)
(10.0417 -0.0108834 0)
(10.0452 -0.011662 0)
(10.0486 -0.0124596 0)
(10.0518 -0.0132705 0)
(10.0548 -0.0140876 0)
(10.0575 -0.0149018 0)
(10.0602 -0.0156928 0)
(10.0005 -0.00273659 0)
(10.0026 -0.00543942 0)
(10.0059 -0.00757556 0)
(10.0098 -0.00922833 0)
(10.014 -0.010542 0)
(10.0184 -0.0116222 0)
(10.0228 -0.012544 0)
(10.0271 -0.0133645 0)
(10.0314 -0.0141246 0)
(10.0354 -0.0148516 0)
(10.0393 -0.0155625 0)
(10.0431 -0.0162671 0)
(10.0466 -0.0169704 0)
(10.0499 -0.0176739 0)
(10.053 -0.0183771 0)
(10.0559 -0.0190774 0)
(10.0587 -0.0197697 0)
(10.0613 -0.0204396 0)
(10.0007 -0.00414866 0)
(10.0032 -0.00809997 0)
(10.0071 -0.0110637 0)
(10.0115 -0.0132596 0)
(10.0161 -0.0149387 0)
(10.0207 -0.0162568 0)
(10.0253 -0.017322 0)
(10.0297 -0.0182175 0)
(10.034 -0.0190027 0)
(10.0381 -0.0197169 0)
(10.042 -0.0203859 0)
(10.0457 -0.0210261 0)
(10.0492 -0.0216477 0)
(10.0524 -0.0222567 0)
(10.0555 -0.0228564 0)
(10.0584 -0.0234481 0)
(10.061 -0.0240299 0)
(10.0636 -0.0245927 0)
(10.0009 -0.00579441 0)
(10.0043 -0.0110127 0)
(10.009 -0.0146616 0)
(10.014 -0.0172492 0)
(10.019 -0.0191676 0)
(10.0239 -0.0206173 0)
(10.0287 -0.0217395 0)
(10.0333 -0.0226428 0)
(10.0376 -0.0234019 0)
(10.0417 -0.0240654 0)
(10.0455 -0.024665 0)
(10.0492 -0.0252217 0)
(10.0526 -0.025749 0)
(10.0557 -0.0262559 0)
(10.0587 -0.0267484 0)
(10.0614 -0.0272306 0)
(10.064 -0.0277042 0)
(10.0664 -0.0281648 0)
(10.0014 -0.00782681 0)
(10.0059 -0.0142983 0)
(10.0117 -0.0184213 0)
(10.0174 -0.0212205 0)
(10.0228 -0.0232387 0)
(10.028 -0.0247054 0)
(10.0329 -0.0257933 0)
(10.0374 -0.0266348 0)
(10.0417 -0.0273158 0)
(10.0457 -0.02789 0)
(10.0494 -0.0283924 0)
(10.0529 -0.028846 0)
(10.0561 -0.0292658 0)
(10.0591 -0.0296619 0)
(10.0618 -0.0300417 0)
(10.0644 -0.0304112 0)
(10.0667 -0.0307752 0)
(10.0689 -0.031135 0)
(10.0021 -0.010434 0)
(10.0083 -0.0180336 0)
(10.0153 -0.0223169 0)
(10.0216 -0.0251129 0)
(10.0272 -0.0270773 0)
(10.0325 -0.0284405 0)
(10.0373 -0.0294046 0)
(10.0417 -0.0301207 0)
(10.0457 -0.0306789 0)
(10.0494 -0.031133 0)
(10.0529 -0.0315175 0)
(10.056 -0.0318544 0)
(10.0589 -0.0321582 0)
(10.0615 -0.0324382 0)
(10.0639 -0.0327017 0)
(10.0662 -0.0329555 0)
(10.0682 -0.0332073 0)
(10.0701 -0.0334652 0)
(10.0033 -0.0138378 0)
(10.0117 -0.0222102 0)
(10.0198 -0.0262217 0)
(10.0263 -0.0287781 0)
(10.0318 -0.0305359 0)
(10.0368 -0.0316864 0)
(10.0412 -0.0324524 0)
(10.0451 -0.0329938 0)
(10.0486 -0.0333974 0)
(10.0518 -0.0337123 0)
(10.0547 -0.0339694 0)
(10.0573 -0.0341876 0)
(10.0597 -0.0343784 0)
(10.0618 -0.0345483 0)
(10.0638 -0.0347019 0)
(10.0655 -0.0348443 0)
(10.0671 -0.0349848 0)
(10.0685 -0.0351398 0)
(10.005 -0.0182948 0)
(10.0159 -0.0266582 0)
(10.0247 -0.0298659 0)
(10.0307 -0.0319624 0)
(10.0355 -0.0333814 0)
(10.0397 -0.0342362 0)
(10.0432 -0.0347605 0)
(10.0462 -0.03511 0)
(10.0489 -0.0353567 0)
(10.0512 -0.0355378 0)
(10.0532 -0.0356765 0)
(10.055 -0.0357868 0)
(10.0566 -0.0358759 0)
(10.058 -0.0359464 0)
(10.0593 -0.0359985 0)
(10.0603 -0.0360321 0)
(10.0612 -0.0360538 0)
(10.0618 -0.0360849 0)
(10.0075 -0.0241245 0)
(10.0207 -0.0310226 0)
(10.0287 -0.0328137 0)
(10.0331 -0.0343148 0)
(10.0363 -0.0353605 0)
(10.0389 -0.035914 0)
(10.0409 -0.0362061 0)
(10.0424 -0.0363799 0)
(10.0435 -0.0364876 0)
(10.0443 -0.036552 0)
(10.0449 -0.0365876 0)
(10.0453 -0.0366035 0)
(10.0455 -0.0366032 0)
(10.0456 -0.0365855 0)
(10.0455 -0.0365454 0)
(10.0453 -0.0364737 0)
(10.0449 -0.0363657 0)
(10.0443 -0.0362301 0)
(10.0101 -0.0307452 0)
(10.0238 -0.0344068 0)
(10.0287 -0.034361 0)
(10.0292 -0.0352345 0)
(10.0289 -0.0359351 0)
(10.0281 -0.0362211 0)
(10.0266 -0.0363039 0)
(10.0246 -0.03631 0)
(10.0224 -0.0362756 0)
(10.0199 -0.0362138 0)
(10.0173 -0.0361346 0)
(10.0145 -0.0360443 0)
(10.0116 -0.0359443 0)
(10.0087 -0.0358312 0)
(10.0057 -0.0356944 0)
(10.0026 -0.0355118 0)
(9.99952 -0.0352494 0)
(9.99609 -0.0348432 0)
(10.0062 -0.0364077 0)
(10.0142 -0.0379466 0)
(10.0067 -0.0361117 0)
(9.99424 -0.0359745 0)
(9.98161 -0.0359973 0)
(9.96878 -0.0357903 0)
(9.95556 -0.035494 0)
(9.94213 -0.0351949 0)
(9.92867 -0.0349053 0)
(9.91528 -0.0346227 0)
(9.90201 -0.0343463 0)
(9.88888 -0.0340756 0)
(9.87594 -0.0338082 0)
(9.8632 -0.0335387 0)
(9.8507 -0.0332551 0)
(9.83846 -0.0329276 0)
(9.82652 -0.0324876 0)
(9.81433 -0.0315491 0)
(9.89292 -0.0248308 0)
(9.80337 -0.0270758 0)
(9.69906 -0.0264878 0)
(9.59608 -0.0263386 0)
(9.49956 -0.0261459 0)
(9.40857 -0.0258 0)
(9.32226 -0.0253931 0)
(9.24037 -0.0249791 0)
(9.16274 -0.0245707 0)
(9.08917 -0.0241692 0)
(9.01941 -0.0237753 0)
(8.95325 -0.023389 0)
(8.8905 -0.0230094 0)
(8.83099 -0.0226343 0)
(8.77455 -0.0222586 0)
(8.72107 -0.0218665 0)
(8.67062 -0.0214108 0)
(8.62168 -0.0205339 0)
(0.000794144 -0.00150212 0)
(0.00296178 -0.00314383 0)
(0.00641891 -0.00419543 0)
(0.0101513 -0.00453817 0)
(0.013619 -0.0042872 0)
(0.0165412 -0.00364908 0)
(0.0187736 -0.00281776 -3.37806e-19)
(0.0202583 -0.00193191 3.2844e-19)
(0.020991 -0.00107128 0)
(0.0209896 -0.000282335 3.1504e-19)
(0.0203114 0.000399945 0)
(0.0190454 0.000955117 0)
(0.0172658 0.00139629 0)
(0.0150355 0.00175742 -2.98007e-19)
(0.0124046 0.00208172 0)
(0.00939637 0.00241856 0)
(0.00601376 0.00280062 3.09066e-19)
(0.00223313 0.00322992 0)
(-0.00205788 0.00370024 0)
(-0.00676724 0.00419235 0)
(-0.0119871 0.00472223 -2.97424e-19)
(-0.0177473 0.00529709 0)
(-0.0240839 0.00591565 -2.74977e-19)
(-0.0310311 0.00657239 0)
(-0.0386192 0.00725957 0)
(-0.046873 0.00796842 -2.39049e-19)
(-0.0558114 0.00868992 0)
(-0.0654471 0.00941548 2.15275e-19)
(-0.0757871 0.0101373 0)
(-0.0868331 0.0108486 -1.92804e-19)
(-0.0985823 0.0115439 0)
(-0.111028 0.0122186 0)
(-0.124161 0.0128697 0)
(-0.13797 0.0134947 0)
(-0.15244 0.0140924 0)
(-0.167556 0.0146621 1.37683e-19)
(-0.183304 0.0152037 0)
(-0.199667 0.0157178 -2.47139e-19)
(-0.216628 0.0162052 0)
(-0.234172 0.0166671 2.22635e-19)
(-0.252283 0.0171049 0)
(-0.270946 0.01752 0)
(-0.290148 0.0179138 -1.91858e-19)
(-0.309874 0.0182878 0)
(-0.330114 0.0186433 -1.74687e-19)
(-0.350856 0.0189817 1.66958e-19)
(-0.372092 0.0193044 0)
(-0.393812 0.0196124 1.52995e-19)
(-0.416008 0.0199068 1.46685e-19)
(-0.438672 0.0201883 0)
(-0.461796 0.0204576 0)
(-0.485375 0.0207151 0)
(-0.5094 0.020961 0)
(-0.533867 0.0211953 0)
(-0.55877 0.0214176 -1.16262e-19)
(-0.584101 0.0216273 0)
(-0.609856 0.0218234 1.08367e-19)
(-0.636026 0.0220048 0)
(-0.662605 0.0221698 0)
(-0.689583 0.0223163 -9.81158e-20)
(-0.716951 0.022442 0)
(-0.744698 0.0225443 9.2181e-20)
(-0.772814 0.0226206 0)
(-0.801284 0.0226679 0)
(-0.830093 0.0226826 0)
(-0.859223 0.0226606 -8.20719e-20)
(-0.888653 0.0225961 0)
(-0.918366 0.0224811 0)
(-0.948342 0.0223058 -7.57394e-20)
(-0.978559 0.0220588 0)
(-1.00899 0.0217334 -7.19734e-20)
(-1.03963 0.021356 0)
(-1.07051 0.0210286 0)
(-1.10172 0.0210754 0)
(-1.13319 0.0220844 6.49776e-20)
(-1.16495 0.0228833 0)
(-1.19694 0.0228579 0)
(-1.22907 0.0228142 6.0834e-20)
(-1.26137 0.0227762 5.95927e-20)
(-1.29383 0.0227327 0)
(-1.32644 0.0226777 5.72547e-20)
(-1.35919 0.0226081 0)
(-1.39205 0.0225224 1.10182e-19)
(-1.42499 0.0224198 0)
(-1.458 0.0222997 1.06162e-19)
(-1.49104 0.0221618 0)
(-1.52409 0.022006 -1.02415e-19)
(-1.55711 0.0218322 0)
(-1.59009 0.0216403 0)
(-1.62299 0.0214306 0)
(-1.65578 0.0212031 9.56046e-20)
(-1.68844 0.0209581 0)
(-1.72093 0.0206962 -9.24819e-20)
(-1.75322 0.0204176 0)
(-1.78529 0.020123 8.9511e-20)
(-1.81711 0.0198127 8.80742e-20)
(-1.84865 0.019487 8.66658e-20)
(-1.87988 0.0191459 0)
(-1.91076 0.0187895 0)
(-1.94127 0.0184173 0)
(-1.97138 0.0180289 0)
(-2.00106 0.0176236 0)
(-2.03026 0.0172008 0)
(-2.05896 0.0167592 0)
(-2.08712 0.0162976 0)
(-2.11469 0.0158143 -7.4778e-20)
(-2.14163 0.0153075 -7.34939e-20)
(-2.16789 0.0147755 0)
(-2.19341 0.014216 0)
(-2.21813 0.0136273 0)
(-2.242 0.0130073 -6.83046e-20)
(-2.26495 0.0123548 0)
(-2.28689 0.0116685 0)
(-2.30777 0.0109479 0)
(-2.32749 0.0101927 0)
(-2.34599 0.00940355 6.14856e-20)
(-2.36319 0.00858122 0)
(-2.379 0.00772695 0)
(-2.39335 0.00684205 -5.70683e-20)
(-2.40616 0.00592787 5.55209e-20)
(-2.41737 0.00498574 0)
(-2.42689 0.00401562 5.22912e-20)
(-2.43466 0.00301412 0)
(-2.44059 0.00197812 -4.88541e-20)
(-2.4446 0.000915252 0)
(-2.44662 -0.000161656 0)
(-2.4466 -0.00125527 0)
(-2.44447 -0.00237515 0)
(-2.44015 -0.00352576 0)
(-2.43356 -0.00471098 7.35751e-20)
(-2.42461 -0.00593435 6.89664e-20)
(-2.41318 -0.00719903 0)
(-2.39919 -0.00850764 0)
(-2.3825 -0.00986241 0)
(-2.36302 -0.0112653 -4.84189e-20)
(-2.34061 -0.0127179 0)
(-2.31515 -0.0142209 0)
(-2.28654 -0.0157743 0)
(-2.25464 -0.0173775 -2.37583e-20)
(-2.21934 -0.019029 1.6821e-20)
(-2.18053 -0.0207261 0)
(-2.13811 -0.0224649 0)
(-2.09199 -0.0242399 -6.15808e-21)
(-2.04209 -0.0260448 -1.46108e-20)
(-1.98835 -0.0278724 0)
(-1.93073 -0.0297149 0)
(-1.86922 -0.0315633 4.26602e-20)
(-1.80382 -0.0334069 -5.29844e-20)
(-1.73457 -0.0352333 0)
(-1.66152 -0.0370305 0)
(-1.58478 -0.0387864 -8.72081e-20)
(-1.50446 -0.040486 0)
(-1.42073 -0.0421139 0)
(-1.33378 -0.0436573 -1.26784e-19)
(-1.24383 -0.0450993 0)
(-1.15113 -0.0464252 -1.56406e-19)
(-1.05597 -0.0476183 0)
(-0.958658 -0.0486641 0)
(-0.859535 -0.0495453 0)
(-0.758957 -0.0502481 2.23767e-19)
(-0.657287 -0.0507526 0)
(-0.55493 -0.0510337 0)
(-0.452289 -0.0511082 0)
(-0.349789 -0.0509009 0)
(-0.247929 -0.0503981 0)
(-0.14711 -0.0498337 0)
(-0.048662 -0.0492186 3.66373e-19)
(0.0505065 -0.0479321 3.76629e-19)
(0.14416 -0.0460263 0)
(0.235132 -0.0440201 0)
(0.322754 -0.0419241 0)
(0.406794 -0.0397445 -3.58737e-19)
(0.487025 -0.0374893 0)
(0.56319 -0.0351515 6.9898e-19)
(0.635029 -0.0327083 -6.90075e-19)
(0.701941 -0.0300279 -6.81773e-19)
(0.763517 -0.0269409 6.74431e-19)
(0.816172 -0.0223981 -6.7007e-19)
(0.861164 -0.0154751 6.70727e-19)
(0.857359 0.00321266 0)
(0.00119092 -0.00613765 0)
(0.00432292 -0.0104643 0)
(0.00745853 -0.0115058 5.58766e-19)
(0.0100298 -0.0108184 0)
(0.011891 -0.00921676 -3.85036e-19)
(0.0130114 -0.00714531 -3.51171e-19)
(0.0133934 -0.00486648 -1.6665e-19)
(0.0130331 -0.00253699 -1.62236e-19)
(0.0118982 -0.000251909 0)
(0.0100383 0.00188836 -1.57939e-19)
(0.00749602 0.00381579 0)
(0.00430487 0.00551464 0)
(0.000475071 0.0070129 3.12878e-19)
(-0.00396516 0.00834447 1.53243e-19)
(-0.00896757 0.00956128 -2.97333e-19)
(-0.0145268 0.0107339 -2.88075e-19)
(-0.0206251 0.0119124 -1.39374e-19)
(-0.0272511 0.0131202 0)
(-0.0344012 0.0143607 0)
(-0.0420689 0.0156415 0)
(-0.0502596 0.0169743 -1.20355e-19)
(-0.0589743 0.0183592 0)
(-0.0682138 0.0197905 3.33236e-19)
(-0.0779782 0.0212585 0)
(-0.0882672 0.0227514 0)
(-0.0990795 0.0242563 9.76992e-20)
(-0.110413 0.0257606 0)
(-0.122264 0.0272523 -8.93485e-20)
(-0.13463 0.0287209 -1.70713e-19)
(-0.147505 0.0301571 8.15888e-20)
(-0.160884 0.0315534 0)
(-0.17476 0.0329039 0)
(-0.189128 0.0342041 0)
(-0.20398 0.0354512 -1.3598e-19)
(-0.219308 0.0366436 -1.30015e-19)
(-0.235105 0.0377806 -6.22176e-20)
(-0.251364 0.0388627 0)
(-0.268077 0.0398909 1.14029e-19)
(-0.285237 0.0408669 0)
(-0.302836 0.0417929 -1.04732e-19)
(-0.320868 0.0426713 0)
(-0.339327 0.0435046 0)
(-0.358206 0.0442957 9.26327e-20)
(-0.377502 0.0450471 0)
(-0.397209 0.0457614 2.56769e-19)
(-0.417323 0.0464411 -8.24359e-20)
(-0.437841 0.0470886 0)
(-0.45876 0.0477061 -7.65361e-20)
(-0.480079 0.0482957 -7.38239e-20)
(-0.501793 0.0488591 0)
(-0.523901 0.0493979 0)
(-0.5464 0.0499135 0)
(-0.569288 0.0504068 0)
(-0.592563 0.0508785 0)
(-0.616223 0.0513292 6.03238e-20)
(-0.640265 0.0517588 1.16747e-19)
(-0.664688 0.0521674 -5.67063e-20)
(-0.689489 0.0525547 0)
(-0.714663 0.0529201 1.06712e-19)
(-0.740209 0.053263 -5.17559e-20)
(-0.766121 0.0535827 0)
(-0.792396 0.0538786 -4.91768e-20)
(-0.819029 0.0541502 0)
(-0.846018 0.0543973 0)
(-0.873357 0.0546204 -9.08844e-20)
(-0.901043 0.0548199 4.44584e-20)
(-0.929072 0.0549959 -8.66644e-20)
(-0.957437 0.0551472 8.47222e-20)
(-0.986134 0.0552705 4.15407e-20)
(-1.01516 0.0553589 0)
(-1.0445 0.0553982 3.98255e-20)
(-1.07415 0.0553684 0)
(-1.1041 0.0552516 0)
(-1.13426 0.0550738 0)
(-1.16455 0.0549193 3.63599e-20)
(-1.195 0.0547945 0)
(-1.22569 0.0546438 6.97235e-20)
(-1.25659 0.0544901 -1.02449e-19)
(-1.28768 0.0543247 -3.35003e-20)
(-1.31892 0.0541359 0)
(-1.35028 0.0539163 -3.21373e-20)
(-1.38175 0.0536614 0)
(-1.41331 0.0533688 -6.17355e-20)
(-1.44492 0.0530371 0)
(-1.47656 0.0526654 -5.93639e-20)
(-1.50821 0.0522534 1.16053e-19)
(-1.53984 0.0518011 5.71418e-20)
(-1.57142 0.0513087 0)
(-1.60293 0.0507764 0)
(-1.63434 0.050205 0)
(-1.66561 0.0495949 -5.30808e-20)
(-1.69673 0.048947 0)
(-1.72765 0.0482622 5.12117e-20)
(-1.75836 0.0475417 0)
(-1.78882 0.0467866 -1.47911e-19)
(-1.81901 0.0459981 -4.85702e-20)
(-1.84888 0.0451769 -4.7726e-20)
(-1.87843 0.0443237 0)
(-1.9076 0.0434386 0)
(-1.93637 0.0425212 0)
(-1.96472 0.0415706 0)
(-1.9926 0.0405855 0)
(-2.01997 0.0395644 -8.55218e-20)
(-2.04681 0.038505 -8.39878e-20)
(-2.07307 0.0374049 0)
(-2.0987 0.0362607 4.06187e-20)
(-2.12366 0.0350688 3.98536e-20)
(-2.14789 0.0338254 0)
(-2.17135 0.0325263 7.6378e-20)
(-2.19396 0.0311674 0)
(-2.21567 0.029745 -3.65367e-20)
(-2.23641 0.0282559 0)
(-2.25609 0.0266975 0)
(-2.27465 0.0250685 6.85877e-20)
(-2.29201 0.0233685 0)
(-2.30809 0.0215988 -3.27404e-20)
(-2.3228 0.0197614 0)
(-2.33606 0.0178597 0)
(-2.3478 0.0158971 -3.00802e-20)
(-2.35793 0.0138777 -2.9264e-20)
(-2.36637 0.0118053 0)
(-2.37305 0.00968145 2.73968e-20)
(-2.3779 0.00750176 0)
(-2.38082 0.00526215 -2.54918e-20)
(-2.38173 0.00297684 -4.88945e-20)
(-2.3806 0.00066494 0)
(-2.37736 -0.00167538 0)
(-2.37194 -0.00405519 0)
(-2.36427 -0.00648271 0)
(-2.35425 -0.00896474 -3.74268e-20)
(-2.3418 -0.011507 -1.05259e-19)
(-2.32682 -0.0141141 0)
(-2.30921 -0.0167894 0)
(-2.28886 -0.0195355 0)
(-2.26566 -0.0223538 2.39954e-20)
(-2.2395 -0.0252443 0)
(-2.21026 -0.0282058 0)
(-2.17785 -0.0312356 -3.0542e-20)
(-2.14214 -0.0343291 -1.2574e-20)
(-2.10304 -0.0374796 -8.05057e-21)
(-2.06046 -0.0406786 0)
(-2.0143 -0.043915 0)
(-1.96449 -0.0471747 2.87052e-21)
(-1.91098 -0.0504418 -5.18098e-21)
(-1.85372 -0.0536988 0)
(-1.79271 -0.0569274 0)
(-1.72793 -0.0601075 -1.90482e-20)
(-1.65942 -0.0632165 6.81798e-20)
(-1.58724 -0.066229 0)
(-1.51147 -0.0691209 0)
(-1.43223 -0.0718692 3.69149e-20)
(-1.34967 -0.0744473 0)
(-1.26396 -0.076829 9.04027e-20)
(-1.17533 -0.0789938 -4.87991e-20)
(-1.08402 -0.0809164 0)
(-0.990296 -0.0825775 6.09501e-20)
(-0.894471 -0.0839573 1.29236e-19)
(-0.796872 -0.0850407 0)
(-0.697848 -0.085812 0)
(-0.597769 -0.0862652 -8.06579e-20)
(-0.497007 -0.0863891 0)
(-0.395958 -0.0861717 1.78145e-19)
(-0.295004 -0.0856676 0)
(-0.194539 -0.0848249 0)
(-0.0948027 -0.0836476 0)
(0.0041499 -0.0820794 0)
(0.100566 -0.0800609 -1.09013e-19)
(0.194809 -0.0773552 -1.0992e-19)
(0.285578 -0.0740996 0)
(0.373173 -0.0707729 0)
(0.457236 -0.0673359 0)
(0.537546 -0.0637878 1.12533e-19)
(0.613903 -0.0601239 0)
(0.686084 -0.05632 -2.26106e-19)
(0.753861 -0.0523152 2.26344e-19)
(0.816755 -0.0479065 2.26507e-19)
(0.874432 -0.0427226 2.24564e-19)
(0.924579 -0.0354256 2.27685e-19)
(0.96911 -0.0240197 2.2864e-19)
(0.991042 -0.00146922 0)
(0.00114755 -0.0118162 0)
(0.00340091 -0.0165481 0)
(0.00489813 -0.0159817 -4.109e-19)
(0.0056555 -0.0135333 -3.29837e-19)
(0.00565005 -0.0102462 2.89744e-19)
(0.00487645 -0.00657105 2.67398e-19)
(0.00335875 -0.00273867 1.61638e-23)
(0.00108897 0.00111778 0)
(-0.00184035 0.00483017 0)
(-0.00538474 0.00827035 0)
(-0.00952677 0.0114154 0)
(-0.0142471 0.0142727 0)
(-0.0195311 0.0168693 -6.03965e-19)
(-0.0253664 0.0192481 0)
(-0.03174 0.0214665 1.88229e-19)
(-0.0386343 0.0235828 1.81906e-19)
(-0.0460268 0.025644 0)
(-0.053896 0.0276834 0)
(-0.0622249 0.0297225 0)
(-0.0710003 0.0317755 0)
(-0.0802105 0.0338504 1.51802e-19)
(-0.0898445 0.035949 0)
(-0.0998929 0.0380677 -1.40561e-19)
(-0.110348 0.040199 0)
(-0.121203 0.0423333 0)
(-0.132453 0.0444593 0)
(-0.144094 0.0465658 -2.39558e-19)
(-0.156124 0.0486417 0)
(-0.16854 0.0506768 1.10447e-19)
(-0.181342 0.0526624 -2.12007e-19)
(-0.194529 0.0545909 0)
(-0.208099 0.0564563 0)
(-0.222052 0.0582544 0)
(-0.236389 0.059982 9.02236e-20)
(-0.251108 0.0616378 8.67168e-20)
(-0.266209 0.0632212 0)
(-0.281693 0.0647331 0)
(-0.297557 0.0661749 -1.54322e-19)
(-0.313802 0.0675489 -1.48597e-19)
(-0.330427 0.0688578 1.43161e-19)
(-0.347431 0.0701046 0)
(-0.364814 0.0712926 0)
(-0.382574 0.0724252 0)
(-0.400711 0.0735058 0)
(-0.419225 0.0745375 -1.19931e-19)
(-0.438115 0.0755236 -1.1589e-19)
(-0.457382 0.0764668 1.12116e-19)
(-0.477026 0.07737 0)
(-0.497045 0.0782355 0)
(-0.517441 0.0790654 0)
(-0.538212 0.0798615 0)
(-0.559357 0.0806251 -9.5876e-20)
(-0.580877 0.0813574 0)
(-0.60277 0.0820587 0)
(-0.625036 0.0827292 -8.78971e-20)
(-0.647673 0.0833688 -8.5561e-20)
(-0.67068 0.0839766 0)
(-0.694055 0.084552 1.6197e-19)
(-0.717797 0.0850936 -7.89691e-20)
(-0.741902 0.0855999 7.69684e-20)
(-0.766368 0.0860694 0)
(-0.791192 0.0865005 0)
(-0.81637 0.0868915 0)
(-0.841898 0.0872413 0)
(-0.867773 0.087549 6.82197e-20)
(-0.89399 0.0878147 1.33203e-19)
(-0.920541 0.0880386 6.52193e-20)
(-0.947421 0.0882218 -6.38064e-20)
(-0.974619 0.0883656 0)
(-1.00213 0.0884707 1.22066e-19)
(-1.02993 0.0885367 1.19502e-19)
(-1.05804 0.0885633 1.16999e-19)
(-1.08643 0.0885548 -1.14537e-19)
(-1.11506 0.088518 0)
(-1.14389 0.0884436 -1.64572e-19)
(-1.1729 0.0883027 0)
(-1.2021 0.0880881 5.23817e-20)
(-1.23149 0.0878229 5.14614e-20)
(-1.26103 0.0875105 0)
(-1.29071 0.0871473 0)
(-1.3205 0.0867286 9.64873e-20)
(-1.35039 0.0862508 0)
(-1.38034 0.0857112 9.26558e-20)
(-1.41034 0.0851082 0)
(-1.44036 0.0844409 -8.9058e-20)
(-1.47037 0.083709 -1.74869e-19)
(-1.50035 0.0829124 0)
(-1.53028 0.0820516 0)
(-1.56011 0.0811272 0)
(-1.58984 0.0801402 -8.09307e-20)
(-1.61942 0.0790915 0)
(-1.64884 0.0779826 -7.79691e-20)
(-1.67805 0.0768147 0)
(-1.70705 0.0755895 0)
(-1.73578 0.0743085 1.47721e-19)
(-1.76424 0.0729735 0)
(-1.79238 0.0715856 7.11117e-20)
(-1.82017 0.0701455 0)
(-1.84759 0.0686533 6.85365e-20)
(-1.87461 0.0671081 0)
(-1.90119 0.0655086 0)
(-1.9273 0.0638527 0)
(-1.9529 0.0621376 1.90863e-19)
(-1.97795 0.0603599 6.24991e-20)
(-2.00242 0.0585152 0)
(-2.02625 0.0565983 0)
(-2.04941 0.0546032 0)
(-2.07184 0.0525238 0)
(-2.09348 0.0503536 -5.64321e-20)
(-2.11427 0.048086 1.10211e-19)
(-2.13415 0.0457151 5.39825e-20)
(-2.15304 0.0432357 -1.05312e-19)
(-2.17089 0.0406436 -1.02833e-19)
(-2.1876 0.0379366 -5.0234e-20)
(-2.20309 0.0351139 0)
(-2.2173 0.0321773 -9.52304e-20)
(-2.23012 0.02913 0)
(-2.24149 0.025977 8.99884e-20)
(-2.25131 0.0227241 4.36656e-20)
(-2.25951 0.0193776 0)
(-2.266 0.0159436 -8.17887e-20)
(-2.27072 0.0124235 -3.94482e-20)
(-2.27358 0.00881216 0)
(-2.27447 0.00511733 -3.65849e-20)
(-2.27338 0.00136919 1.04851e-19)
(-2.27025 -0.00241698 0)
(-2.26501 -0.00625249 0)
(-2.25758 -0.0101506 0)
(-2.2479 -0.0141227 0)
(-2.23587 -0.0181784 5.32314e-20)
(-2.22141 -0.0223257 4.9283e-20)
(-2.20443 -0.0265707 0)
(-2.18482 -0.0309179 0)
(-2.16248 -0.0353697 0)
(-2.13731 -0.0399267 0)
(-2.1092 -0.0445873 0)
(-2.07805 -0.0493478 0)
(-2.04375 -0.0542017 2.0843e-20)
(-2.00621 -0.0591397 -6.88002e-22)
(-1.96533 -0.0641493 0)
(-1.92102 -0.0692146 0)
(-1.87322 -0.074316 2.94823e-21)
(-1.82185 -0.079429 0)
(-1.76688 -0.0845264 7.91725e-21)
(-1.70827 -0.0895786 1.21027e-20)
(-1.64602 -0.094554 0)
(-1.58014 -0.0994193 0)
(-1.51068 -0.104137 -2.91245e-20)
(-1.43771 -0.108667 -6.68925e-20)
(-1.36132 -0.112968 0)
(-1.28165 -0.117004 0)
(-1.19886 -0.120734 0)
(-1.11314 -0.124115 -5.70033e-20)
(-1.02471 -0.127118 6.26297e-20)
(-0.933844 -0.129705 0)
(-0.840812 -0.131848 1.44792e-19)
(-0.745928 -0.133519 7.64647e-20)
(-0.649527 -0.1347 -1.66633e-19)
(-0.551965 -0.135372 0)
(-0.453608 -0.135535 0)
(-0.354834 -0.135184 -1.98009e-19)
(-0.256015 -0.134322 -1.0543e-19)
(-0.15753 -0.133029 0)
(-0.0598552 -0.131225 0)
(0.0370329 -0.128835 0)
(0.131483 -0.125733 0)
(0.223306 -0.121907 -2.41147e-19)
(0.312477 -0.117396 0)
(0.39859 -0.112402 0)
(0.481513 -0.107212 0)
(0.560957 -0.101846 0)
(0.636711 -0.0963148 0)
(0.708591 -0.0906183 0)
(0.776406 -0.0847249 -2.55799e-19)
(0.839967 -0.0785482 0)
(0.898906 -0.0718331 0)
(0.953077 -0.0641198 -5.18353e-19)
(1.00098 -0.0540141 2.60468e-19)
(1.04541 -0.0398433 -2.64872e-19)
(1.07752 -0.0159368 2.73061e-19)
(0.00061454 -0.0153672 0)
(0.00128666 -0.0187409 9.91932e-19)
(0.000947157 -0.0164503 0)
(-0.000168718 -0.0123275 2.79316e-19)
(-0.00204076 -0.00744417 0)
(-0.00462263 -0.00224677 0)
(-0.00786044 0.00300559 -2.01408e-19)
(-0.0116289 0.00807744 0)
(-0.0159042 0.0128682 0)
(-0.0206622 0.017332 0)
(-0.0258944 0.0214584 0)
(-0.0315945 0.02526 0)
(-0.0377571 0.0287664 5.92002e-19)
(-0.044376 0.0320196 2.85427e-19)
(-0.0514414 0.0350693 -2.75509e-19)
(-0.0589388 0.037966 0)
(-0.06685 0.0407543 0)
(-0.0751557 0.0434704 0)
(-0.0838381 0.0461411 0)
(-0.0928812 0.0487856 0)
(-0.102271 0.0514157 2.23004e-19)
(-0.111995 0.0540374 2.15091e-19)
(-0.122043 0.0566515 -2.07402e-19)
(-0.132409 0.0592552 1.99942e-19)
(-0.143087 0.0618426 0)
(-0.154073 0.0644065 0)
(-0.165367 0.0669386 1.79024e-19)
(-0.17697 0.0694304 0)
(-0.188881 0.0718738 0)
(-0.201105 0.0742613 1.6029e-19)
(-0.213643 0.0765864 1.5451e-19)
(-0.226499 0.0788437 1.49009e-19)
(-0.239677 0.0810293 0)
(-0.253181 0.0831403 0)
(-0.267014 0.0851749 -1.3392e-19)
(-0.28118 0.0871328 0)
(-0.295682 0.0890144 0)
(-0.310523 0.0908211 1.20829e-19)
(-0.325706 0.0925548 -1.16802e-19)
(-0.341233 0.0942183 1.13014e-19)
(-0.357107 0.0958143 0)
(-0.373329 0.0973461 0)
(-0.389901 0.098817 2.05393e-19)
(-0.406825 0.10023 0)
(-0.424101 0.101589 1.93137e-19)
(-0.441731 0.102896 2.8116e-19)
(-0.459716 0.104155 -2.72972e-19)
(-0.478057 0.105367 1.76748e-19)
(-0.496755 0.106537 0)
(-0.51581 0.107664 0)
(-0.535222 0.108752 1.62422e-19)
(-0.554992 0.1098 7.90513e-20)
(-0.575119 0.110811 0)
(-0.595603 0.111784 0)
(-0.616444 0.112719 7.30213e-20)
(-0.63764 0.113616 1.42288e-19)
(-0.659191 0.114473 0)