/*--------------------------------*- C++ -*----------------------------------*\
| =========                 |                                                 |
| \\      /  F ield         | OpenFOAM: The Open Source CFD Toolbox           |
|  \\    /   O peration     | Version:  1.4.2                                 |
|   \\  /    A nd           | Web:      http://www.openfoam.org               |
|    \\/     M anipulation  |                                                 |
\*---------------------------------------------------------------------------*/
FoamFile
{
    version     2.0;
    format      ascii;
    class       volScalarField;
    object      epsilon;
    location    "450";
}
// * * * * * * * * * * * * * * * * * * * * * * * * * * * * * * * * * * * * * //

dimensions      [0 2 -3 0 0 0 0];

internalField   nonuniform List<scalar> 
12225
(
443.026
353.451
290.585
245.344
212.186
187.59
169.239
155.565
145.477
138.201
133.172
129.974
128.288
127.867
128.514
130.068
132.393
135.655
60.166
73.616
79.5693
83.6975
87.7182
92.3598
97.9767
104.751
112.781
122.119
132.786
144.772
158.045
172.538
188.157
204.766
222.119
240.273
26.2961
33.7101
37.8449
40.6835
42.9307
44.9545
46.9672
49.097
51.4237
53.9984
56.8532
60.0067
63.4653
67.2238
71.262
75.5374
79.9612
84.3704
18.7357
22.724
25.4809
27.3755
28.8172
30.0122
31.0724
32.0714
33.0585
34.0666
35.1173
36.2244
37.3952
38.6317
39.9304
41.2811
42.6644
44.0369
16.1688
18.164
19.9334
21.2927
22.3449
23.1848
23.8868
24.5043
25.0713
25.6095
26.1339
26.6548
27.179
27.7102
28.2498
28.7969
29.3477
29.8841
15.2354
16.0868
17.0491
17.9379
18.6903
19.3126
19.8315
20.273
20.6585
21.0048
21.3243
21.6256
21.9149
22.1961
22.4717
22.7427
23.0085
23.2592
14.8943
15.1702
15.5868
16.0529
16.5073
16.9232
17.2913
17.6118
17.8907
18.1359
18.3548
18.5533
18.7363
18.9072
19.0689
19.2227
19.3686
19.5003
14.7876
14.838
14.9917
15.2096
15.4544
15.702
15.9383
16.156
16.353
16.5298
16.6884
16.8313
16.9611
17.0801
17.1904
17.2932
17.389
17.474
14.7441
14.6884
14.7003
14.7664
14.8679
14.9888
15.1173
15.2452
15.3678
15.4825
15.5884
15.6854
15.7742
15.8556
15.9305
15.9998
16.064
16.1213
14.7239
14.6134
14.5425
14.5091
14.5063
14.5263
14.5617
14.6065
14.6559
14.7069
14.7573
14.8058
14.8517
14.8946
14.9347
14.972
15.0067
15.0378
14.7149
14.579
14.4657
14.3757
14.3075
14.2584
14.2248
14.2034
14.1911
14.1855
14.1845
14.1866
14.1906
14.1957
14.2013
14.2072
14.213
14.2182
14.7109
14.5642
14.4318
14.314
14.2108
14.1214
14.0445
13.9786
13.9222
13.8739
13.8322
13.7959
13.7642
13.7361
13.711
13.6883
13.6677
13.6489
14.7089
14.5577
14.4176
14.288
14.1688
14.0596
13.96
13.8691
13.7864
13.7111
13.6425
13.5797
13.5222
13.4693
13.4205
13.3753
13.3334
13.295
14.7077
14.5544
14.4112
14.277
14.1515
14.0341
13.9244
13.822
13.7263
13.6371
13.5537
13.4758
13.403
13.3348
13.2709
13.2109
13.1546
13.1026
14.7067
14.5523
14.4076
14.2716
14.1437
14.0232
13.9097
13.8027
13.7017
13.6065
13.5166
13.4316
13.3514
13.2755
13.2038
13.1358
13.0717
13.012
14.706
14.5508
14.4052
14.2683
14.1394
14.0177
13.9027
13.794
13.691
13.5935
13.5011
13.4134
13.3302
13.2511
13.176
13.1047
13.037
12.9739
14.7055
14.5497
14.4036
14.2662
14.1367
14.0144
13.8988
13.7893
13.6856
13.5872
13.4939
13.4052
13.3209
13.2407
13.1644
13.0918
13.0229
12.9586
14.7053
14.5494
14.4031
14.2654
14.1357
14.0131
13.8972
13.7875
13.6836
13.5849
13.4913
13.4024
13.3179
13.2375
13.1611
13.0884
13.0194
12.955
14.7055
14.5497
14.4035
14.266
14.1364
14.0141
13.8985
13.7891
13.6856
13.5875
13.4946
13.4065
13.3228
13.2435
13.1682
13.0967
13.029
12.966
14.7059
14.5507
14.4052
14.2685
14.1399
14.0189
13.905
13.7978
13.6968
13.6016
13.5119
13.4273
13.3476
13.2723
13.2012
13.134
13.0708
13.0122
14.7068
14.5529
14.4094
14.2757
14.1512
14.0357
13.9285
13.8291
13.7369
13.6514
13.572
13.4981
13.4293
13.3651
13.3051
13.2489
13.1964
13.1482
14.7086
14.5589
14.4228
14.3003
14.1908
14.0935
14.0073
13.9308
13.8629
13.8022
13.7476
13.6983
13.6533
13.612
13.5738
13.5384
13.5053
13.4751
14.7142
14.5802
14.4709
14.3854
14.3211
14.2741
14.2406
14.2172
14.201
14.1896
14.1813
14.1746
14.1689
14.1633
14.1575
14.1513
14.1445
14.1378
14.7358
14.6588
14.6349
14.6533
14.7002
14.7636
14.8343
14.906
14.9745
15.0373
15.0932
15.1419
15.1835
15.2183
15.2471
15.2705
15.2893
15.3043
14.8205
14.9297
15.1378
15.3942
15.6595
15.9114
16.1388
16.3371
16.506
16.6481
16.7666
16.8651
16.9468
17.0143
17.0702
17.1165
17.1549
17.1869
15.1412
15.7852
16.5164
17.2059
17.7951
18.2803
18.6734
18.9891
19.2421
19.4454
19.6096
19.7434
19.8535
19.9453
20.0228
20.0892
20.1471
20.1981
16.3188
18.299
19.9614
21.2343
22.1808
22.882
23.4046
23.8002
24.1055
24.3459
24.5396
24.6998
24.8362
24.9561
25.0649
25.1664
25.2636
25.358
20.7542
25.6369
28.6919
30.5982
31.8392
32.6627
33.2214
33.6173
33.9158
34.1589
34.3741
34.5793
34.7859
35.0013
35.2297
35.4735
35.7333
36.0082
43.9609
54.4817
58.7069
60.4197
60.9746
60.9891
60.8443
60.7534
60.7835
60.9637
61.3033
61.8005
62.448
63.2357
64.1517
65.1838
66.3171
67.5442
332.627
280.253
240.732
210.193
186.154
166.943
151.389
138.656
128.134
119.367
112.013
105.807
100.545
96.0648
92.2382
88.9616
86.1518
83.7394
0.361923
0.514803
0.709863
0.894637
1.07007
1.25335
1.49468
1.82514
2.2477
2.78012
3.4599
4.36367
5.44541
6.6832
8.10041
9.71453
11.5485
13.6381
16.0397
18.8428
22.1902
26.312
31.5851
35.8624
40.2552
44.9196
49.8818
55.1507
60.7323
66.6324
72.8564
79.4097
86.2973
93.5239
101.094
109.012
117.283
125.91
134.896
144.246
153.964
164.053
174.517
185.359
196.584
208.195
220.198
232.598
245.401
258.614
272.244
286.301
300.797
315.744
331.156
347.053
363.452
380.378
397.857
415.919
434.598
453.932
473.965
494.743
516.322
538.759
562.121
586.477
611.906
638.492
666.324
695.499
726.12
758.296
792.141
827.774
865.318
904.9
946.648
990.69
1037.16
1086.17
1137.84
1192.29
1249.61
1309.88
1373.19
1439.56
1509.06
1581.69
1657.49
1736.53
1818.97
1905.17
1994.53
2084.95
2175.5
2265
2352.04
2435
2512.02
2581.09
2640.13
2687.06
2719.93
2737.09
2737.3
2719.86
2684.71
2632.48
2564.43
2482.41
2388.7
2285.86
2176.62
2064
1950.91
1838.87
1732.91
1639.77
1558.5
1482.19
1409.77
1341.11
1276.17
1214.9
1157.22
1102.98
1052.04
1004.22
959.334
917.2
877.637
840.47
805.535
772.674
741.74
712.595
685.112
659.174
634.671
611.505
589.582
568.819
549.138
530.468
512.743
495.903
479.892
464.659
450.156
436.34
423.172
410.614
398.631
387.193
376.27
365.833
355.859
346.322
337.2
328.473
320.118
312.118
304.453
297.105
290.055
283.285
276.773
270.499
264.438
258.561
252.83
247.215
241.725
236.263
230.689
224.733
218.028
208.316
1.29431
1.09694
1.13804
1.26557
1.48279
1.80131
2.22573
2.76622
3.41268
4.17961
5.08032
6.12477
7.31284
8.6438
10.12
11.7463
13.5304
15.4832
17.618
19.9481
22.4821
25.2135
28.0999
31.0211
34.0447
37.2039
40.511
43.9718
47.5896
51.3675
55.3081
59.414
63.6877
68.1315
72.7478
77.5389
82.5068
87.6538
92.9819
98.4932
104.19
110.074
116.147
122.413
128.872
135.53
142.387
149.448
156.716
164.197
171.894
179.814
187.964
196.351
204.984
213.873
223.028
232.462
242.191
252.228
262.593
273.304
284.383
295.854
307.742
320.075
332.883
346.198
360.053
374.485
389.532
405.231
421.623
438.748
456.648
475.362
494.929
515.388
536.772
559.114
582.438
606.765
632.11
658.479
685.868
714.267
743.654
773.999
805.264
837.406
870.378
904.137
938.638
973.822
1010.01
1046.13
1081.72
1116.32
1149.44
1180.49
1208.85
1233.84
1254.77
1270.94
1281.72
1286.57
1285.08
1277.02
1262.35
1241.28
1214.21
1181.75
1144.65
1103.78
1060.03
1014.25
967.151
918.869
871.839
827.723
786.8
748.189
711.594
676.915
644.101
613.102
583.859
556.302
530.354
505.931
482.949
461.322
440.965
421.798
403.741
386.72
370.667
355.515
341.202
327.672
314.872
302.752
291.268
280.378
270.042
260.226
250.897
242.024
233.58
225.538
217.874
210.568
203.597
196.945
190.592
184.522
178.722
173.175
167.87
162.795
157.936
153.285
148.83
144.561
140.471
136.55
132.79
129.183
125.721
122.397
119.203
116.132
113.177
110.346
107.674
105.164
102.857
100.875
99.5914
100.209
2.58748
1.91147
1.94466
2.17964
2.55663
3.02819
3.5984
4.27932
5.07886
6.00334
7.0574
8.24432
9.5655
11.0209
12.6103
14.3342
16.1941
18.1918
20.3286
22.6043
25.0152
27.5533
30.2064
32.9638
35.8342
38.8268
41.9474
45.1999
48.5873
52.112
55.7764
59.5825
63.5326
67.6286
71.8725
76.266
80.8111
85.5094
90.3628
95.3728
100.541
105.87
111.36
117.014
122.834
128.822
134.98
141.311
147.818
154.505
161.374
168.43
175.679
183.125
190.776
198.636
206.716
215.023
223.566
232.358
241.409
250.732
260.341
270.251
280.48
291.042
301.958
313.245
324.924
337.014
349.538
362.514
375.963
389.905
404.359
419.342
434.867
450.949
467.596
484.814
502.604
520.963
539.884
559.352
579.351
599.856
620.84
642.27
664.112
686.327
708.875
731.716
754.797
778.116
801.547
824.725
847.395
869.301
890.152
909.611
927.298
942.801
955.684
965.507
971.85
974.333
972.652
966.599
956.092
941.188
922.096
899.167
872.869
843.738
812.32
779.229
744.915
710.809
677.744
646.12
616.037
587.342
559.953
533.842
508.995
485.395
463.016
441.823
421.773
402.817
384.905
367.981
351.992
336.883
322.602
309.099
296.325
284.233
272.782
261.929
251.637
241.871
232.597
223.785
215.406
207.433
199.843
192.612
185.719
179.146
172.873
166.883
161.162
155.695
150.468
145.469
140.685
136.106
131.722
127.522
123.499
119.643
115.946
112.401
109.001
105.739
102.609
99.6051
96.7211
93.9521
91.2934
88.7408
86.2915
83.9476
81.7304
79.6556
77.7614
76.1363
74.9965
74.8096
4.52331
3.06905
3.03959
3.33935
3.77734
4.33104
4.9994
5.78594
6.6944
7.72763
8.88757
10.1754
11.5917
13.1362
14.8084
16.6078
18.534
20.5867
22.765
25.0677
27.4926
30.037
32.6986
35.4773
38.3761
41.3988
44.549
47.8295
51.2428
54.7914
58.4772
62.3023
66.2686
70.378
74.6323
79.0331
83.5819
88.2803
93.1297
98.1315
103.287
108.597
114.064
119.689
125.472
131.416
137.522
143.791
150.226
156.828
163.6
170.545
177.665
184.963
192.444
200.111
207.97
216.025
224.281
232.747
241.427
250.33
259.463
268.836
278.457
288.335
298.481
308.903
319.613
330.62
341.933
353.562
365.516
377.801
390.423
403.387
416.696
430.349
444.345
458.678
473.341
488.324
503.613
519.192
535.043
551.148
567.484
584.031
600.767
617.672
634.726
651.909
669.195
686.617
704.017
721.253
738.193
754.685
770.545
785.545
799.414
811.843
822.486
830.977
836.939
840.005
839.84
836.167
828.795
817.655
802.812
784.493
763.056
738.94
712.687
684.889
656.667
628.575
601.057
574.397
548.724
524.063
500.421
477.806
456.22
435.658
416.104
397.533
379.916
363.215
347.39
332.401
318.203
304.755
292.014
279.939
268.491
257.633
247.328
237.544
228.249
219.413
211.008
203.009
195.392
188.135
181.215
174.615
168.316
162.302
156.556
151.065
145.814
140.791
135.985
131.384
126.979
122.758
118.714
114.838
111.122
107.558
104.139
100.859
97.7107
94.6892
91.7885
89.0036
86.3295
83.7619
81.297
78.9318
76.6644
74.4961
72.4387
70.5083
68.7334
67.1712
65.9398
65.2178
6.9081
4.41147
4.21706
4.47472
4.94119
5.55465
6.29608
7.15985
8.14501
9.25206
10.4818
11.8349
13.3119
14.9131
16.6385
18.488
20.4617
22.5594
24.7809
27.1258
29.594
32.1853
34.9003
37.7403
40.7076
43.8049
47.0348
50.3999
53.9026
57.545
61.3292
65.2572
69.3309
73.5521
77.9222
82.443
87.1156
91.9414
96.9216
102.057
107.349
112.797
118.404
124.169
130.093
136.176
142.42
148.824
155.389
162.116
169.006
176.059
183.276
190.658
198.206
205.922
213.807
221.863
230.092
238.495
247.076
255.837
264.78
273.908
283.224
292.731
302.431
312.328
322.423
332.719
343.216
353.917
364.819
375.924
387.228
398.728
410.418
422.294
434.346
446.566
458.943
471.465
484.12
496.896
509.779
522.759
535.827
548.975
562.201
575.505
588.892
602.373
615.958
629.672
643.445
657.227
670.964
684.578
697.957
710.944
723.335
734.878
745.273
754.181
761.226
766.011
768.129
767.191
762.859
754.914
743.256
728.013
709.496
688.17
664.768
640.198
615.093
589.922
565.067
540.798
517.274
494.583
472.772
451.868
431.881
412.811
394.646
377.367
360.946
345.352
330.552
316.508
303.183
290.54
278.541
267.152
256.337
246.062
236.298
227.012
218.179
209.77
201.762
194.131
186.856
179.916
173.293
166.97
160.929
155.155
149.635
144.355
139.303
134.466
129.835
125.399
121.149
117.075
113.169
109.424
105.831
102.384
99.0764
95.9015
92.8536
89.9272
87.1172
84.4187
81.8273
79.3391
76.9508
74.6597
72.4645
70.3663
68.3722
66.496
64.759
63.1993
61.8843
60.8882
9.3279
5.70482
5.26981
5.48212
5.96703
6.62397
7.41785
8.33532
9.37159
10.5255
11.7972
13.1877
14.6982
16.3298
18.0835
19.9605
21.9617
24.0879
26.34
28.7189
31.2254
33.8609
36.6268
39.5251
42.5581
45.7283
49.0381
52.49
56.0863
59.8294
63.7213
67.7641
71.9595
76.3093
80.8149
85.4779
90.2992
95.2801
100.421
105.723
111.187
116.812
122.599
128.548
134.658
140.93
147.363
153.956
160.708
167.619
174.687
181.912
189.292
196.827
204.514
212.353
220.342
228.48
236.764
245.194
253.767
262.482
271.336
280.327
289.452
298.71
308.096
317.607
327.24
336.989
346.85
356.816
366.882
377.04
387.281
397.598
407.98
418.418
428.899
439.413
449.949
460.496
471.044
481.587
492.118
502.635
513.142
523.646
534.162
544.71
555.319
566.026
576.88
587.909
599.113
610.505
622.091
633.854
645.743
657.664
669.469
680.956
691.868
701.89
710.652
717.727
722.634
724.85
723.833
719.2
710.578
697.997
681.742
662.556
641.263
618.571
595.167
571.517
548.016
524.957
502.526
480.84
459.965
439.937
420.773
402.472
385.024
368.409
352.604
337.578
323.299
309.734
296.848
284.606
272.974
261.919
251.409
241.412
231.9
222.844
214.22
206.002
198.167
190.694
183.563
176.755
170.251
164.037
158.096
152.414
146.977
141.774
136.792
132.021
127.449
123.068
118.869
114.842
110.98
107.275
103.719
100.307
97.0321
93.8877
90.8684
87.9688
85.1841
82.5097
79.9414
77.4754
75.1087
72.8389
70.6648
68.5874
66.6113
64.7479
63.013
61.4327
60.0465
58.8871
11.3442
6.74238
6.13683
6.31423
6.80935
7.49409
8.32142
9.27201
10.338
11.517
12.8089
14.215
15.7373
17.378
19.1392
21.0231
23.0319
25.1672
27.4311
29.8253
32.3517
35.0123
37.8094
40.7452
43.8224
47.0434
50.411
53.9276
57.5959
61.418
65.3962
69.5327
73.8291
78.2874
82.9089
87.6949
92.6464
97.7644
103.049
108.502
114.121
119.909
125.863
131.983
138.268
144.718
151.331
158.105
165.038
172.129
179.374
186.771
194.317
202.009
209.843
217.815
225.922
234.159
242.522
251.004
259.602
268.308
277.117
286.023
295.017
304.093
313.243
322.457
331.726
341.041
350.391
359.765
369.151
378.537
387.91
397.256
406.564
415.817
425.005
434.113
443.131
452.049
460.86
469.559
478.149
486.634
495.027
503.349
511.629
519.905
528.224
536.645
545.248
554.071
563.164
572.589
582.4
592.638
603.312
614.388
625.781
637.347
648.887
660.138
670.766
680.352
688.376
694.2
696.886
695.672
690.143
680.244
666.493
649.55
630.125
608.925
586.625
563.797
540.973
518.506
496.614
475.427
455.022
435.439
416.693
398.784
381.701
365.424
349.929
335.186
321.164
307.832
295.154
283.099
271.633
260.725
250.344
240.46
231.047
222.078
213.527
205.372
197.591
190.163
183.07
176.292
169.813
163.618
157.692
152.021
146.591
141.392
136.412
131.64
127.066
122.681
118.476
114.442
110.572
106.859
103.295
99.8733
96.5884
93.4341
90.4047
87.4952
84.7007
82.0168
79.4392
76.9646
74.5899
72.313
70.1326
68.0494
66.067
64.1937
62.4417
60.8289
59.3787
58.1057
12.8849
7.54584
6.8101
6.95403
7.44789
8.14391
8.98621
9.9509
11.0277
12.2132
13.5069
14.9107
16.4269
18.0586
19.8088
21.6806
23.677
25.8008
28.0545
30.4409
32.9626
35.6222
38.4226
41.3664
44.4566
47.6961
51.0877
54.6342
58.3382
62.2023
66.2288
70.42
74.7777
79.3038
83.9998
88.867
93.9063
99.1186
104.504
110.063
115.796
121.702
127.78
134.029
140.448
147.035
153.787
160.703
167.78
175.014
182.402
189.94
197.623
205.446
213.405
221.492
229.703
238.031
246.467
255.005
263.636
272.35
281.139
289.992
298.898
307.845
316.822
325.815
334.811
343.795
352.752
361.667
370.523
379.304
387.993
396.573
405.027
413.337
421.49
429.468
437.261
444.858
452.252
459.44
466.428
473.225
479.85
486.332
492.71
499.034
505.368
511.787
518.381
525.207
532.349
539.901
547.959
556.612
565.929
575.941
586.632
597.935
609.732
621.853
634.056
646.007
657.236
666.745
673.246
675.774
673.776
667.223
656.456
642.028
624.619
604.962
583.777
561.718
539.36
517.168
495.525
474.576
454.403
435.043
416.509
398.798
381.898
365.787
350.44
335.829
321.923
308.689
296.095
284.109
272.7
261.835
251.487
241.626
232.227
223.262
214.71
206.547
198.752
191.306
184.189
177.385
170.878
164.651
158.691
152.985
147.52
142.283
137.265
132.455
127.843
123.42
119.177
115.106
111.199
107.45
103.85
100.394
97.0748
93.8874
90.826
87.8854
85.0609
82.3481
79.7429
77.242
74.8423
72.5417
70.3392
68.235
66.2317
64.3353
62.5551
60.9031
59.3929
58.0312
14.0084
8.13041
7.2926
7.401
7.88111
8.57182
9.41118
10.372
11.4423
12.6174
13.8968
15.2822
16.7763
18.3825
20.1045
21.9458
23.9101
26.0008
28.2213
30.5748
33.0646
35.6939
38.4661
41.3843
44.4518
47.6718
51.0475
54.5819
58.278
62.1385
66.166
70.3628
74.7312
79.273
83.99
88.8835
93.9547
99.2043
104.633
110.24
116.027
121.992
128.134
134.453
140.946
147.611
154.446
161.448
168.613
175.938
183.418
191.048
198.822
206.735
214.781
222.95
231.237
239.632
248.126
256.709
265.37
274.099
282.882
291.708
300.561
309.427
318.291
327.136
335.945
344.7
353.383
361.973
370.452
378.798
386.992
395.012
402.839
410.452
417.832
424.962
431.827
438.413
444.713
450.721
456.442
461.886
467.073
472.032
476.809
481.459
486.054
490.68
495.429
500.371
505.601
511.233
517.39
524.198
531.777
540.22
549.588
559.902
571.154
583.31
596.301
609.982
624.006
636.973
647.43
654.185
656.475
654.014
646.899
635.551
620.615
602.853
583.053
561.955
540.213
518.372
496.872
476.058
456.021
436.796
418.39
400.796
383.999
367.977
352.706
338.155
324.296
311.097
298.525
286.55
275.14
264.267
253.9
244.015
234.583
225.581
216.986
208.776
200.931
193.431
186.259
179.397
172.83
166.544
160.523
154.756
149.23
143.933
138.855
133.986
129.316
124.835
120.536
116.41
112.45
108.648
104.997
101.492
98.1252
94.8915
91.7853
88.8015
85.9354
83.1825
80.539
78.0014
75.5668
73.2331
70.999
68.8646
66.8316
64.9042
63.0891
61.3943
59.827
58.3904
14.7138
8.50348
7.59255
7.66482
8.12019
8.79051
9.61051
10.551
11.5987
12.7481
13.9982
15.3504
16.8072
18.3723
20.0492
21.8421
23.7548
25.7912
27.9551
30.2503
32.6805
35.2495
37.961
40.8187
43.8261
46.9868
50.3044
53.7822
57.4234
61.231
65.208
69.3571
73.6806
78.1808
82.8595
87.7185
92.7591
97.9822
103.389
108.979
114.752
120.709
126.848
133.169
139.668
146.345
153.196
160.219
167.409
174.763
182.275
189.941
197.753
205.706
213.791
222.002
230.328
238.759
247.287
255.898
264.582
273.324
282.11
290.927
299.756
308.583
317.388
326.152
334.857
343.481
352.002
360.399
368.649
376.729
384.614
392.282
399.71
406.873
413.751
420.322
426.567
432.469
438.016
443.198
448.015
452.472
456.585
460.38
463.898
467.194
470.338
473.42
476.53
479.733
483.12
486.803
490.911
495.585
500.968
507.203
514.414
522.715
532.223
543.09
555.512
569.697
585.466
601.347
615.681
627.075
634.391
636.892
634.322
626.889
615.158
599.906
581.991
562.249
541.437
520.194
499.04
478.383
458.495
439.414
421.14
403.66
386.96
371.016
355.805
341.299
327.468
314.283
301.714
289.729
278.299
267.396
256.992
247.061
237.579
228.521
219.865
211.591
203.678
196.108
188.864
181.93
175.29
168.929
162.835
156.994
151.395
146.026
140.877
135.938
131.199
126.651
122.286
118.096
114.074
110.211
106.502
102.939
99.5172
96.2301
93.0724
90.0389
87.1248
84.326
81.6383
79.0584
76.5834
74.2111
71.9401
69.7703
67.7025
65.7393
63.8856
62.146
60.5241
59.0217
15.0203
8.67787
7.72369
7.76191
8.18454
8.8223
9.60911
10.5151
11.5261
12.636
13.8431
15.1481
16.5535
18.0623
19.6784
21.4055
23.2479
25.2095
27.2945
29.507
31.851
34.3308
36.9502
39.7135
42.6244
45.6869
48.9049
52.2821
55.8219
59.5279
63.4033
67.4511
71.674
76.0748
80.6556
85.4186
90.3655
95.4976
100.816
106.322
112.014
117.895
123.961
130.214
136.651
143.271
150.07
157.047
164.197
171.516
178.999
186.641
194.435
202.375
210.452
218.658
226.984
235.419
243.952
252.571
261.262
270.012
278.805
287.624
296.454
305.274
314.066
322.809
331.482
340.062
348.526
356.849
365.007
372.975
380.727
388.238
395.482
402.434
409.071
415.368
421.303
426.854
432.003
436.735
441.041
444.92
448.38
451.437
454.124
456.484
458.581
460.496
462.319
464.09
465.876
467.766
469.862
472.284
475.159
478.626
482.836
487.961
494.237
502.035
511.908
524.617
540.393
557.77
575.343
591.438
604.371
612.772
615.839
613.416
605.89
594.009
578.696
560.896
541.485
521.219
500.716
480.461
460.826
441.977
423.907
406.602
390.045
374.217
359.096
344.656
330.872
317.716
305.158
293.17
281.726
270.796
260.357
250.382
240.847
231.732
223.013
214.672
206.689
199.046
191.728
184.717
177.999
171.561
165.389
159.471
153.795
148.35
143.126
138.113
133.301
128.683
124.249
119.992
115.904
111.977
108.206
104.584
101.104
97.7605
94.5485
91.4626
88.4982
85.6508
82.9165
80.2919
77.774
75.3605
73.05
70.8419
68.7366
66.7354
64.8411
63.0565
61.3826
59.8206
14.9599
8.67162
7.70423
7.71337
8.09901
8.69577
9.43907
10.2993
11.2621
12.3206
13.4726
14.7182
16.0591
17.4981
19.0386
20.6845
22.4395
24.3079
26.2939
28.4016
30.6355
32.9999
35.4989
38.137
40.9184
43.8473
46.9279
50.1642
53.5601
57.1196
60.8461
64.7432
68.8142
73.0621
77.4897
82.0996
86.894
91.8749
97.0439
102.402
107.951
113.691
119.621
125.742
132.052
138.55
145.234
152.102
159.15
166.375
173.771
181.334
189.058
196.935
204.958
213.119
221.407
229.812
238.323
246.928
255.613
264.362
273.161
281.993
290.839
299.68
308.497
317.267
325.969
334.578
343.071
351.423
359.607
367.598
375.368
382.893
390.146
397.101
403.734
410.02
415.935
421.454
426.553
431.209
435.407
439.138
442.401
445.203
447.563
449.514
451.105
452.404
453.493
454.38
455.093
455.675
456.175
456.642
457.129
457.691
458.404
459.407
460.976
463.687
468.538
476.879
489.551
505.972
525.112
545.194
563.932
579.081
588.996
592.895
590.822
583.413
571.629
556.531
539.138
520.347
500.899
481.38
462.234
443.781
426.049
409.027
392.705
377.068
362.1
347.781
334.089
320.999
308.487
296.525
285.09
274.155
263.697
253.694
244.121
234.96
226.188
217.789
209.743
202.034
194.646
187.564
180.773
174.261
168.014
162.021
156.271
150.752
145.455
140.37
135.488
130.8
126.298
121.974
117.821
113.832
110
106.318
102.78
99.3814
96.1155
92.9775
89.9627
87.0668
84.2858
81.6162
79.0551
76.6
74.2494
72.0022
69.8585
67.8184
65.8834
64.0545
62.3312
60.715
14.565
8.50512
7.55501
7.54311
7.89159
8.44314
9.1365
9.94323
10.8491
11.8471
12.9342
14.11
15.3757
16.7336
18.1867
19.7384
21.3924
23.1526
25.0231
27.0081
29.1122
31.3397
33.695
36.1827
38.8074
41.5734
44.4852
47.5473
50.7639
54.1394
57.6777
61.383
65.2589
69.3092
73.5372
77.9462
82.539
87.3184
92.2866
97.4458
102.797
108.343
114.083
120.018
126.148
132.471
138.988
145.696
152.592
159.673
166.936
174.376
181.986
189.762
197.695
205.776
213.997
222.348
230.816
239.39
248.057
256.801
265.608
274.459
283.337
292.223
301.095
309.933
318.714
327.414
336.009
344.472
352.779
360.903
368.818
376.497
383.917
391.053
397.883
404.383
410.532
416.305
421.67
426.597
431.066
435.061
438.577
441.609
444.164
446.273
447.976
449.329
450.387
451.136
451.558
451.649
451.388
450.722
449.57
447.814
445.329
442.059
438.147
434.156
431.314
431.652
437.085
448.47
465.859
487.853
511.682
533.993
551.874
563.514
568.331
566.694
559.547
548.065
533.433
516.717
498.811
480.428
462.112
444.273
427.062
410.475
394.513
379.173
364.449
350.329
336.795
323.831
311.414
299.523
288.136
277.231
266.786
256.781
247.195
238.009
229.204
220.764
212.671
204.91
197.465
190.323
183.47
176.894
170.581
164.522
158.704
153.118
147.754
142.603
137.655
132.902
128.337
123.951
119.738
115.689
111.799
108.061
104.469
101.017
97.6996
94.5118
91.4489
88.5065
85.6806
82.9676
80.3645
77.869
75.479
73.1935
71.0118
68.9336
66.9586
65.0872
63.3176
61.6518
13.8634
8.19986
7.29866
7.27655
7.59162
8.09795
8.73894
9.48809
10.3318
11.2631
12.2786
13.3774
14.5604
15.8292
17.1866
18.6361
20.1808
21.823
23.5671
25.4176
27.3787
29.4549
31.6508
33.9711
36.4204
39.0035
41.7251
44.59
47.6029
50.7685
54.0914
57.5762
61.2273
65.0489
69.0452
73.2202
77.5775
82.1208
86.853
91.7773
96.8961
102.212
107.725
113.439
119.353
125.468
131.784
138.298
145.011
151.919
159.019
166.308
173.779
181.429
189.25
197.233
205.372
213.655
222.072
230.611
239.26
248.002
256.824
265.708
274.637
283.591
292.551
301.495
310.4
319.243
328
336.646
345.156
353.503
361.663
369.612
377.326
384.786
391.972
398.87
405.465
411.741
417.654
423.16
428.233
432.854
437.012
440.704
443.933
446.722
449.114
451.158
452.87
454.202
455.109
455.558
455.477
454.69
452.978
449.999
445.352
438.672
429.788
418.974
407.267
396.87
390.757
391.761
402.06
421.753
448.241
477.042
503.486
524.136
537.313
542.854
541.567
534.717
523.671
509.698
493.875
477.071
459.952
443.019
426.554
410.584
395.135
380.222
365.852
352.025
338.734
325.968
313.712
301.948
290.661
279.831
269.44
259.47
249.903
240.723
231.912
223.455
215.338
207.545
200.062
192.877
185.977
179.351
172.986
166.872
160.998
155.356
149.934
144.726
139.721
134.912
130.291
125.85
121.582
117.48
113.538
109.749
106.107
102.607
99.2428
96.0094
92.9022
89.9168
87.0492
84.2959
81.6536
79.1199
76.6928
74.3707
72.1526
70.0378
68.0248
66.1134
64.3011
62.59
12.9367
7.79337
6.96399
6.94163
7.2293
7.6938
8.2838
8.97522
9.75555
10.6181
11.5595
12.5785
13.6753
14.8512
16.1084
17.4492
18.8767
20.3938
22.0044
23.7125
25.5223
27.4383
29.465
31.6072
33.8697
36.2576
38.7759
41.4297
44.2242
47.1645
50.2559
53.5035
56.9125
60.4878
64.2344
68.1572
72.2607
76.5494
81.0276
85.6991
90.5675
95.6361
100.908
106.385
112.069
117.962
124.064
130.375
136.894
143.621
150.553
157.686
165.017
172.541
180.252
188.143
196.206
204.431
212.809
221.328
229.975
238.737
247.599
256.543
265.554
274.613
283.7
292.794
301.873
310.915
319.896
328.792
337.579
346.233
354.73
363.047
371.166
379.069
386.747
394.198
401.421
408.369
414.997
421.269
427.161
432.654
437.739
442.415
446.69
450.597
454.188
457.486
460.445
462.994
465.049
466.498
467.18
466.861
465.258
461.789
455.801
446.673
433.964
417.635
398.31
377.601
358.599
345.331
342.504
353.427
377.55
410.125
444.472
474.765
497.505
511.535
517.308
516.107
509.481
498.926
485.737
470.965
455.42
439.708
424.237
409.087
394.319
379.974
366.082
352.656
339.701
327.217
315.196
303.627
292.499
281.798
271.509
261.618
252.111
242.973
234.189
225.747
217.632
209.832
202.335
195.129
188.202
181.543
175.143
168.99
163.075
157.389
151.924
146.67
141.619
136.763
132.096
127.609
123.296
119.149
115.162
111.33
107.645
104.103
100.698
97.4245
94.2782
91.2547
88.3499
85.5603
82.8827
80.3143
77.8531
75.4972
73.2454
71.0964
69.0483
67.0999
65.2487
63.497
11.8782
7.31817
6.57576
6.56133
6.82798
7.25539
7.79752
8.43297
9.15062
9.94438
10.811
11.7492
12.7588
13.8405
14.996
16.2274
17.5373
18.9286
20.4048
21.9697
23.6275
25.3826
27.2396
29.2034
31.279
33.4718
35.787
38.2303
40.8074
43.5239
46.3857
49.3987
52.5688
55.9018
59.4038
63.0803
66.9371
70.9798
75.2136
79.6435
84.2744
89.1106
94.156
99.4143
104.888
110.58
116.492
122.625
128.979
135.554
142.349
149.36
156.586
164.021
171.661
179.499
187.528
195.739
204.123
212.668
221.362
230.193
239.145
248.204
257.352
266.572
275.845
285.151
294.469
303.777
313.053
322.275
331.419
340.464
349.387
358.169
366.795
375.252
383.54
391.668
399.628
407.372
414.86
422.063
428.958
435.531
441.778
447.702
453.323
458.69
463.839
468.744
473.276
477.347
480.827
483.526
485.179
485.43
483.842
479.655
472.067
460.351
444.021
423.012
397.833
369.703
340.747
314.583
296.477
292.798
307.525
338.455
377.91
417.144
449.902
473.315
487.1
492.4
490.911
484.367
474.302
461.971
448.35
434.164
419.932
405.802
391.884
378.254
364.966
352.053
339.536
327.423
315.717
304.416
293.514
283.001
272.87
263.108
253.706
244.651
235.932
227.539
219.459
211.683
204.198
196.996
190.065
183.396
176.98
170.807
164.869
159.156
153.661
148.376
143.292
138.403
133.701
129.179
124.831
120.649
116.627
112.76
109.041
105.464
102.025
98.7187
95.5398
92.4841
89.5477
86.727
84.0187
81.4201
78.9288
76.5429
74.2608
72.0809
70.001
68.0194
66.1334
64.3455
10.7001
6.77479
6.13932
6.14454
6.39952
6.79794
7.29928
7.88497
8.54542
9.27539
10.072
10.9339
11.8609
12.8534
13.9128
15.041
16.2402
17.5135
18.8642
20.2959
21.813
23.4198
25.1212
26.9222
28.8284
30.8451
32.9785
35.2344
37.6192
40.1393
42.8014
45.612
48.5781
51.7064
55.004
58.4777
62.1342
65.9802
70.0223
74.2666
78.7191
83.3853
88.2703
93.3787
98.7145
104.281
110.081
116.116
122.388
128.897
135.641
142.62
149.831
157.27
164.932
172.812
180.901
189.193
197.677
206.342
215.178
224.171
233.307
242.571
251.948
261.419
270.969
280.576
290.222
299.887
309.549
319.188
328.783
338.315
347.764
357.116
366.357
375.483
384.498
393.42
402.243
410.922
419.426
427.73
435.82
443.689
451.337
458.779
466.051
473.197
480.197
486.865
493.088
498.728
503.575
507.325
509.556
509.753
507.221
501.074
490.49
474.813
453.75
427.505
396.854
363.111
328.059
294.067
264.889
246.829
247.373
270.013
309.511
355.102
397.068
429.941
452.14
464.412
468.502
466.359
459.762
450.178
438.754
426.346
413.563
400.633
387.721
374.944
362.384
350.095
338.115
326.465
315.158
304.201
293.593
283.334
273.418
263.839
254.591
245.666
237.054
228.749
220.74
213.02
205.579
198.409
191.501
184.846
178.437
172.265
166.323
160.602
155.095
149.795
144.694
139.785
135.062
130.518
126.146
121.94
117.894
114.002
110.258
106.656
103.192
99.8597
96.6555
93.5746
90.6131
87.7673
85.0339
82.4102
79.8936
77.4821
75.1738
72.9671
70.8595
68.8487
66.9323
65.1129
9.48575
6.18459
5.66973
5.7079
5.9641
6.34644
6.81993
7.36872
7.98474
8.66362
9.40302
10.2019
11.0602
11.9785
12.9582
14.0013
15.1102
16.288
17.5383
18.865
20.2726
21.7659
23.3501
25.0308
26.8138
28.7054
30.712
32.8404
35.0978
37.4914
40.0288
42.7177
45.566
48.5818
51.7731
55.148
58.7144
62.4804
66.4534
70.6409
75.0499
79.6869
84.5578
89.6681
95.0223
100.625
106.478
112.585
118.946
125.563
132.435
139.559
146.934
154.556
162.418
170.516
178.841
187.385
196.138
205.089
214.226
223.537
233.008
242.624
252.37
262.23
272.186
282.222
292.319
302.458
312.621
322.79
332.948
343.078
353.167
363.204
373.182
383.105
392.986
402.855
412.695
422.475
432.173
441.778
451.285
460.695
470.021
479.291
488.531
497.717
506.59
514.987