/*--------------------------------*- C++ -*----------------------------------*\
| =========                 |                                                 |
| \\      /  F ield         | OpenFOAM: The Open Source CFD Toolbox           |
|  \\    /   O peration     | Version:  1.4.2                                 |
|   \\  /    A nd           | Web:      http://www.openfoam.org               |
|    \\/     M anipulation  |                                                 |
\*---------------------------------------------------------------------------*/
FoamFile
{
    version     2.0;
    format      ascii;
    class       volScalarField;
    object      k;
    location    "450";
}
// * * * * * * * * * * * * * * * * * * * * * * * * * * * * * * * * * * * * * //

dimensions      [0 2 -2 0 0 0 0];

internalField   nonuniform List<scalar> 
12225
(
0.315115
0.271063
0.237884
0.212504
0.192898
0.177687
0.165902
0.156841
0.149985
0.144941
0.141403
0.13913
0.137924
0.137623
0.138087
0.139197
0.140852
0.143156
0.365357
0.357609
0.353826
0.353684
0.356734
0.362613
0.370997
0.381591
0.394126
0.408353
0.424035
0.440942
0.458852
0.477545
0.496806
0.516412
0.536063
0.556325
0.370187
0.364636
0.360183
0.356897
0.354767
0.353739
0.353743
0.354697
0.356515
0.359114
0.362415
0.366335
0.370795
0.375708
0.380978
0.386479
0.392026
0.39747
0.371735
0.367477
0.363486
0.359995
0.357014
0.354544
0.352572
0.35107
0.350001
0.349327
0.349009
0.349008
0.349283
0.349794
0.350497
0.351339
0.352258
0.353217
0.372438
0.369048
0.365588
0.362325
0.359331
0.356627
0.354212
0.352076
0.350203
0.348575
0.347173
0.345973
0.344955
0.344096
0.343372
0.342758
0.342232
0.341782
0.37275
0.369942
0.366989
0.364056
0.361246
0.358604
0.356147
0.353878
0.35179
0.349876
0.348123
0.34652
0.345054
0.343713
0.342483
0.341351
0.340307
0.339354
0.372878
0.370409
0.367851
0.365264
0.362717
0.360251
0.357894
0.355664
0.353565
0.351596
0.349751
0.348026
0.346412
0.344902
0.343487
0.34216
0.340916
0.339768
0.372918
0.370598
0.368256
0.365902
0.36357
0.361287
0.359076
0.356951
0.354923
0.352996
0.351169
0.349442
0.347809
0.346267
0.344808
0.34343
0.342128
0.340921
0.372932
0.370687
0.368471
0.366273
0.364103
0.361974
0.3599
0.357892
0.355958
0.354104
0.352332
0.350642
0.349033
0.347503
0.346048
0.344665
0.343352
0.342127
0.372937
0.37073
0.368593
0.366506
0.364466
0.362473
0.360532
0.358648
0.356826
0.355069
0.353381
0.351761
0.350209
0.348726
0.347307
0.345952
0.34466
0.34345
0.372937
0.370745
0.36865
0.366631
0.364679
0.362788
0.360957
0.359183
0.357469
0.355814
0.354219
0.352684
0.351209
0.349793
0.348435
0.347131
0.345885
0.344715
0.372936
0.370747
0.368668
0.366683
0.364781
0.362954
0.361197
0.359506
0.357877
0.356308
0.354798
0.353345
0.351948
0.350605
0.349313
0.348073
0.346886
0.345768
0.372935
0.370745
0.368669
0.366695
0.364815
0.363021
0.361305
0.359663
0.358089
0.356579
0.355131
0.353741
0.352406
0.351125
0.349894
0.348712
0.347581
0.346517
0.372936
0.370742
0.368664
0.366692
0.364818
0.363034
0.361336
0.359715
0.358169
0.356691
0.355278
0.353926
0.352631
0.351391
0.350202
0.349064
0.347975
0.346954
0.372939
0.370742
0.368661
0.366686
0.364811
0.363028
0.361333
0.359719
0.358182
0.356716
0.355317
0.353982
0.352706
0.351487
0.35032
0.349205
0.348142
0.347147
0.372942
0.370744
0.36866
0.366682
0.364804
0.363019
0.361322
0.359708
0.358171
0.356706
0.355311
0.35398
0.352709
0.351497
0.350339
0.349233
0.348181
0.347196
0.372947
0.370748
0.368662
0.366682
0.364801
0.363014
0.361314
0.359697
0.358158
0.356692
0.355295
0.353963
0.352692
0.351479
0.350322
0.349218
0.348168
0.347186
0.372951
0.370752
0.368665
0.366683
0.364801
0.363012
0.36131
0.359691
0.35815
0.356681
0.355281
0.353947
0.352674
0.351459
0.350299
0.349193
0.348141
0.347158
0.372948
0.370748
0.368662
0.36668
0.364798
0.363008
0.361305
0.359684
0.35814
0.356668
0.355264
0.353925
0.352647
0.351426
0.35026
0.349146
0.348086
0.347095
0.372943
0.370744
0.368658
0.366676
0.364792
0.363
0.361293
0.359666
0.358113
0.356631
0.355215
0.353862
0.352568
0.351329
0.350144
0.349011
0.34793
0.346918
0.372939
0.370739
0.368652
0.366667
0.364776
0.362972
0.361249
0.3596
0.358021
0.356509
0.355059
0.353668
0.352333
0.351053
0.349824
0.348645
0.347519
0.346461
0.372934
0.370732
0.368637
0.366634
0.364715
0.362873
0.361101
0.359394
0.35775
0.356167
0.354641
0.353172
0.351757
0.350396
0.349086
0.347829
0.346625
0.345493
0.372927
0.370711
0.368582
0.366522
0.364525
0.362585
0.360701
0.358872
0.3571
0.355384
0.353727
0.352128
0.350587
0.349105
0.347681
0.346315
0.345009
0.343783
0.37291
0.37064
0.36841
0.366207
0.364034
0.361899
0.35981
0.357774
0.355799
0.353891
0.352053
0.350286
0.348592
0.34697
0.345419
0.343938
0.34253
0.341214
0.372856
0.37043
0.367959
0.365459
0.362969
0.360515
0.358123
0.355808
0.353584
0.351454
0.349422
0.347488
0.345649
0.343904
0.342249
0.340682
0.339201
0.337824
0.372693
0.369885
0.366927
0.363923
0.360963
0.358093
0.355343
0.352726
0.35025
0.347915
0.34572
0.343659
0.341727
0.339917
0.338223
0.336639
0.335159
0.333798
0.37223
0.3686
0.364818
0.361098
0.357539
0.354187
0.351062
0.348167
0.345499
0.34305
0.340809
0.338764
0.336901
0.335207
0.333668
0.332273
0.33101
0.329882
0.370946
0.365686
0.36055
0.355802
0.351491
0.347646
0.344267
0.341335
0.338819
0.336682
0.334891
0.333411
0.332211
0.331261
0.330534
0.330005
0.329651
0.329459
0.366354
0.35712
0.349252
0.342901
0.33799
0.334394
0.331966
0.330551
0.33001
0.330219
0.331072
0.332476
0.334353
0.336631
0.339249
0.342154
0.345292
0.348657
0.329178
0.293648
0.265348
0.242403
0.22355
0.207892
0.19477
0.18369
0.174275
0.166233
0.159333
0.153392
0.148263
0.143825
0.13998
0.136645
0.133753
0.131244
0.00615328
0.0081517
0.010101
0.0117878
0.013284
0.0147575
0.0165825
0.0189306
0.0217339
0.0250223
0.028922
0.0337186
0.0390638
0.0447557
0.0508524
0.0573721
0.0643451
0.0718326
0.0799349
0.0887987
0.0986149
0.109594
0.121876
0.136309
0.1475
0.158662
0.170092
0.18181
0.193816
0.206106
0.218675
0.23152
0.244636
0.258017
0.271661
0.285563
0.299717
0.31412
0.328768
0.343655
0.358779
0.374134
0.389718
0.405527
0.421558
0.437809
0.454277
0.470963
0.487866
0.504987
0.522329
0.539895
0.557692
0.575725
0.594005
0.612542
0.631351
0.650447
0.669849
0.689578
0.70966
0.730121
0.750994
0.772311
0.794112
0.816437
0.83933
0.862841
0.887019
0.911919
0.937598
0.964115
0.991531
1.01991
1.04931
1.0798
1.11144
1.14429
1.17842
1.21386
1.25068
1.28892
1.32861
1.36978
1.41245
1.45661
1.50227
1.54939
1.59794
1.64789
1.69919
1.75181
1.80578
1.86123
1.91838
1.97543
2.03184
2.08697
2.14006
2.19025
2.23657
2.27799
2.31343
2.34182
2.36213
2.37346
2.37509
2.36654
2.34762
2.31847
2.27956
2.23167
2.17583
2.11329
2.04548
1.97395
1.90015
1.82601
1.7535
1.6863
1.62817
1.57296
1.51973
1.46841
1.41906
1.37174
1.32646
1.28321
1.24196
1.20263
1.16517
1.12949
1.0955
1.06313
1.03228
1.00286
0.974806
0.948026
0.922449
0.898004
0.874625
0.852252
0.830825
0.810293
0.790604
0.771713
0.753576
0.736153
0.719406
0.703301
0.687805
0.672889
0.658523
0.644683
0.631345
0.618485
0.606082
0.594117
0.582572
0.571428
0.56067
0.550281
0.540246
0.530549
0.521174
0.512108
0.503333
0.494834
0.486592
0.478586
0.47079
0.463172
0.455692
0.448313
0.441048
0.43378
0.426337
0.41838
0.409436
0.396615
0.00906819
0.015657
0.0208654
0.0255706
0.0303105
0.0356446
0.0415502
0.0480478
0.0550738
0.0627825
0.0712651
0.0805614
0.090655
0.101499
0.113041
0.125242
0.138084
0.15156
0.165679
0.180446
0.195851
0.211835
0.228227
0.245093
0.2622
0.279693
0.297615
0.315976
0.334776
0.354011
0.373677
0.39377
0.414284
0.435214
0.456553
0.478296
0.500435
0.522963
0.545875
0.569162
0.592818
0.616836
0.64121
0.665932
0.690998
0.716401
0.742138
0.768204
0.794598
0.821319
0.848366
0.875744
0.903458
0.931514
0.959925
0.988703
1.01787
1.04744
1.07744
1.10791
1.13888
1.17039
1.20249
1.23522
1.26866
1.30285
1.33789
1.37384
1.41079
1.44885
1.4881
1.52866
1.57064
1.61417
1.65937
1.70638
1.75534
1.80639
1.85969
1.91537
1.97359
2.03451
2.09826
2.16501
2.23488
2.30801
2.38451
2.46449
2.54802
2.63517
2.72594
2.8203
2.9182
3.01946
3.12252
3.22742
3.33359
3.44017
3.54601
3.64971
3.74958
3.84365
3.92972
4.00543
4.06835
4.11614
4.1467
4.15838
4.1501
4.12148
4.07292
4.00554
3.92112
3.82199
3.71095
3.59124
3.46579
3.33734
3.21166
3.09152
2.97602
2.86395
2.75538
2.65065
2.55008
2.45388
2.36212
2.27478
2.1918
2.11301
2.03826
1.96734
1.90004
1.83616
1.77549
1.71783
1.66298
1.61076
1.561
1.51354
1.46824
1.42495
1.38354
1.34391
1.30594
1.26953
1.23459
1.20104
1.1688
1.13779
1.10796
1.07924
1.05157
1.02491
0.999204
0.974408
0.95048
0.927383
0.90508
0.883537
0.86272
0.8426
0.823146
0.80433
0.786125
0.768506
0.751444
0.734914
0.71889
0.703342
0.68824
0.673549
0.659225
0.645191
0.631371
0.617736
0.604171
0.590531
0.577046
0.564717
0.0143839
0.0257446
0.0347071
0.0430339
0.0514107
0.0596734
0.0681366
0.0771118
0.0867908
0.0972884
0.108662
0.120935
0.134104
0.148134
0.162978
0.178595
0.194952
0.212025
0.229794
0.248241
0.267338
0.28705
0.307326
0.32816
0.349539
0.371477
0.393981
0.417053
0.440691
0.464893
0.489656
0.514976
0.540848
0.567267
0.594227
0.621721
0.649742
0.678284
0.707337
0.736895
0.766948
0.797488
0.828507
0.859995
0.891946
0.92435
0.957202
0.990494
1.02422
1.05838
1.09297
1.12799
1.16344
1.19932
1.23564
1.27242
1.30967
1.3474
1.38565
1.42442
1.46377
1.50374
1.54435
1.58567
1.62777
1.67069
1.71452
1.75934
1.80524
1.85231
1.90067
1.95043
2.00171
2.05464
2.10937
2.16603
2.22478
2.28577
2.34917
2.41515
2.48387
2.55551
2.63024
2.70823
2.78964
2.87466
2.96342
3.05608
3.15277
3.25359
3.35864
3.46797
3.58157
3.69894
3.81953
3.94327
4.06967
4.19794
4.32697
4.45532
4.58111
4.70205
4.81546
4.91827
5.00721
5.07897
5.13041
5.15889
5.16245
5.14012
5.09195
5.01909
4.92361
4.80836
4.67685
4.53233
4.3773
4.21845
4.05979
3.90399
3.75211
3.60468
3.46233
3.32558
3.19478
3.0701
2.95157
2.83909
2.73249
2.63153
2.53594
2.44543
2.35971
2.27846
2.2014
2.12825
2.05876
1.99266
1.92973
1.86976
1.81255
1.75791
1.70568
1.65571
1.60785
1.56198
1.51797
1.47572
1.43513
1.3961
1.35856
1.32242
1.28761
1.25407
1.22173
1.19053
1.16044
1.13138
1.10333
1.07623
1.05004
1.02473
1.00025
0.976571
0.953662
0.931486
0.910013
0.88921
0.869045
0.849486
0.8305
0.81205
0.794096
0.776587
0.759439
0.742669
0.72625
0.710225
0.695039
0.682138
0.0208595
0.0383076
0.0514245
0.0629859
0.0734192
0.0835282
0.0938431
0.104706
0.11633
0.128837
0.142289
0.156708
0.172091
0.188416
0.20565
0.22376
0.242716
0.262491
0.283065
0.304414
0.32652
0.34936
0.372918
0.397184
0.422157
0.447838
0.47423
0.501331
0.52914
0.557657
0.586878
0.6168
0.647418
0.678728
0.710725
0.7434
0.776748
0.810759
0.845425
0.880736
0.916682
0.953251
0.990433
1.02822
1.06659
1.10554
1.14506
1.18513
1.22574
1.26689
1.30856
1.35075
1.39346
1.43667
1.48039
1.52462
1.56936
1.61462
1.66042
1.70676
1.75368
1.80119
1.84934
1.89815
1.94767
1.99797
2.04908
2.10109
2.15406
2.20808
2.26325
2.31965
2.37741
2.43663
2.49745
2.56
2.62441
2.69084
2.75944
2.83038
2.90382
2.97995
3.05894
3.14097
3.22625
3.31496
3.40729
3.50346
3.60365
3.70805
3.81684
3.9302
4.04826
4.17055
4.29728
4.42842
4.56371
4.70261
4.84425
4.98734
5.13012
5.27023
5.40475
5.53015
5.64244
5.73738
5.81071
5.85859
5.87794
5.8668
5.82461
5.75219
5.65167
5.52625
5.37961
5.21545
5.04105
4.86131
4.68042
4.5012
4.32543
4.15443
3.98919
3.83043
3.6786
3.53392
3.39642
3.266
3.14243
3.02545
2.91472
2.80991
2.71066
2.61662
2.52745
2.44282
2.36242
2.28596
2.21318
2.14382
2.07766
2.01448
1.95409
1.8963
1.84097
1.78793
1.73704
1.68819
1.64126
1.59614
1.55274
1.51096
1.47072
1.43194
1.39456
1.35851
1.32372
1.29014
1.25771
1.22639
1.19613
1.16688
1.13859
1.11124
1.08477
1.05915
1.03435
1.01033
0.987053
0.964487
0.942597
0.921351
0.900712
0.880646
0.861101
0.842122
0.82376
0.806185
0.789888
0.776128
0.0276597
0.0511948
0.0679913
0.0816192
0.0938539
0.105642
0.117557
0.12997
0.143117
0.157144
0.172131
0.188117
0.205113
0.223115
0.242106
0.262069
0.282985
0.304835
0.327602
0.351271
0.375828
0.401262
0.427563
0.454727
0.482753
0.511639
0.541387
0.571997
0.603467
0.635798
0.668986
0.703029
0.737923
0.773664
0.810245
0.847658
0.885896
0.924949
0.964805
1.00545
1.04688
1.08907
1.13202
1.17569
1.22009
1.26518
1.31095
1.35739
1.40448
1.45219
1.50051
1.54942
1.59891
1.64896
1.69956
1.75068
1.80234
1.8545
1.90718
1.96037
2.01407
2.06828
2.12303
2.17832
2.23417
2.29062
2.3477
2.40544
2.4639
2.52313
2.5832
2.64417
2.70614
2.76918
2.8334
2.89891
2.96583
3.03429
3.10442
3.17637
3.25032
3.32642
3.40486
3.48585
3.56959
3.65631
3.74626
3.83968
3.93687
4.03809
4.14366
4.25387
4.36897
4.48904
4.61449
4.74558
4.88237
5.0247
5.17209
5.32362
5.47784
5.63262
5.78505
5.93139
6.06712
6.18708
6.28583
6.35806
6.3992
6.40591
6.37656
6.31136
6.21221
6.08235
5.92682
5.75284
5.56656
5.37327
5.17723
4.98167
4.78895
4.60089
4.41881
4.24364
4.07596
3.91606
3.76401
3.61971
3.48295
3.35343
3.23079
3.11467
3.00466
2.9004
2.8015
2.70761
2.61839
2.53352
2.4527
2.37566
2.30215
2.23194
2.16481
2.10056
2.03902
1.98003
1.92343
1.86908
1.81685
1.76664
1.71833
1.67182
1.62703
1.58386
1.54225
1.50211
1.46337
1.42599
1.38989
1.35501
1.32132
1.28875
1.25725
1.2268
1.19733
1.16882
1.14121
1.11448
1.08859
1.06351
1.03919
1.01561
0.992745
0.970572
0.949067
0.928294
0.908355
0.88947
0.872076
0.857128
0.0337997
0.0625198
0.0819543
0.097647
0.111663
0.125029
0.13837
0.152095
0.166472
0.181676
0.197816
0.214956
0.23313
0.252357
0.272642
0.293983
0.316377
0.339816
0.364293
0.389799
0.416329
0.443877
0.472438
0.50201
0.532594
0.56419
0.596798
0.630421
0.665059
0.700711
0.737376
0.775053
0.813737
0.853423
0.894106
0.935777
0.978427
1.02204
1.06662
1.11213
1.15856
1.20591
1.25414
1.30324
1.35318
1.40394
1.4555
1.50782
1.56089
1.61468
1.66915
1.72428
1.78004
1.83639
1.89332
1.95079
2.00877
2.06724
2.12616
2.18553
2.24531
2.3055
2.36606
2.42699
2.48828
2.54992
2.61193
2.67429
2.73703
2.80017
2.86372
2.92773
2.99224
3.0573
3.12297
3.18932
3.25645
3.32444
3.39342
3.4635
3.53483
3.60757
3.6819
3.75803
3.83619
3.91662
3.99963
4.08554
4.17469
4.26748
4.36434
4.46573
4.57206
4.68388
4.80183
4.92649
5.05832
5.19762
5.34443
5.49841
5.65867
5.8236
5.99066
6.15623
6.31554
6.4627
6.59101
6.69349
6.76358
6.79602
6.78755
6.73726
6.64646
6.52009
6.3651
6.18848
5.99669
5.7954
5.58938
5.38242
5.17744
4.97671
4.78189
4.59411
4.41411
4.24227
4.07871
3.92337
3.77604
3.6364
3.50411
3.37877
3.25996
3.14728
3.04034
2.93875
2.84217
2.75024
2.66266
2.57914
2.49941
2.42322
2.35035
2.28058
2.21373
2.14963
2.0881
2.02901
1.97222
1.9176
1.86504
1.81444
1.76569
1.71871
1.6734
1.6297
1.58753
1.54682
1.50751
1.46953
1.43283
1.39736
1.36306
1.32989
1.2978
1.26675
1.23669
1.2076
1.17942
1.15214
1.12571
1.10011
1.07532
1.05133
1.02815
1.00584
0.984524
0.964433
0.945919
0.929685
0.0385259
0.0714422
0.0931399
0.11065
0.126247
0.14101
0.155592
0.170426
0.185808
0.201939
0.218956
0.236952
0.255987
0.276103
0.297327
0.319676
0.343161
0.367788
0.393558
0.420473
0.448533
0.477738
0.508088
0.539586
0.572234
0.606034
0.64099
0.677105
0.714381
0.75282
0.792421
0.833183
0.875104
0.918179
0.962402
1.00777
1.05426
1.10187
1.15058
1.20038
1.25124
1.30315
1.35609
1.41002
1.46492
1.52076
1.57751
1.63514
1.69361
1.75288
1.81291
1.87366
1.9351
1.99717
2.05984
2.12305
2.18676
2.25092
2.3155
2.38043
2.44567
2.51117
2.5769
2.6428
2.70884
2.77497
2.84116
2.90736
2.97357
3.03973
3.10585
3.17191
3.2379
3.30382
3.3697
3.43555
3.50142
3.56735
3.63343
3.69973
3.76636
3.83347
3.90122
3.96979
4.03943
4.11041
4.18305
4.25772
4.33486
4.41495
4.49854
4.58624
4.67869
4.77676
4.88133
4.99332
5.11361
5.24304
5.38228
5.53172
5.69129
5.86025
6.03689
6.21822
6.3997
6.57509
6.73661
6.87543
6.98253
7.04994
7.07195
7.04587
6.97384
6.86133
6.71524
6.54286
6.35128
6.14691
5.93529
5.72093
5.50739
5.29741
5.093
4.89555
4.70596
4.52472
4.35202
4.18784
4.03199
3.88416
3.74398
3.61107
3.48499
3.36534
3.25169
3.14366
3.04087
2.94298
2.84966
2.76061
2.67556
2.59424
2.51642
2.44188
2.37044
2.30189
2.23608
2.17285
2.11207
2.05359
1.99731
1.9431
1.89087
1.84052
1.79196
1.74512
1.6999
1.65625
1.61409
1.57336
1.534
1.49595
1.45916
1.42357
1.38915
1.35584
1.32361
1.29241
1.26221
1.23297
1.20467
1.17728
1.1508
1.12522
1.10057
1.07689
1.05434
1.03311
1.01347
0.995952
0.0419507
0.078228
0.101582
0.120468
0.137319
0.153221
0.168826
0.18457
0.20076
0.217617
0.2353
0.253925
0.273578
0.29432
0.316199
0.339249
0.363494
0.388952
0.415635
0.443555
0.472717
0.503129
0.534797
0.567727
0.601927
0.637402
0.67416
0.712205
0.751543
0.792177
0.834109
0.877341
0.921871
0.967695
1.01481
1.0632
1.11287
1.16379
1.21596
1.26935
1.32395
1.37973
1.43667
1.49473
1.55388
1.6141
1.67534
1.73756
1.80072
1.86477
1.92967
1.99537
2.0618
2.12892
2.19666
2.26497
2.33377
2.40301
2.47261
2.5425
2.61262
2.68288
2.75322
2.82355
2.89381
2.96391
3.03377
3.10333
3.1725
3.24121
3.3094
3.377
3.44395
3.5102
3.57571
3.64044
3.70437
3.76749
3.82983
3.8914
3.95228
4.01254
4.07232
4.13176
4.19109
4.25056
4.31051
4.37132
4.43348
4.49754
4.56414
4.63403
4.70805
4.78724
4.87272
4.96572
5.06752
5.17949
5.303
5.43928
5.58933
5.75362
5.93182
6.12226
6.32143
6.52353
6.72021
6.90091
7.05364
7.16667
7.23101
7.24223
7.20169
7.11394
6.98574
6.82492
6.63951
6.43704
6.22406
6.00603
5.78725
5.57102
5.35976
5.15515
4.9583
4.76983
4.59001
4.41887
4.25624
4.10184
3.95532
3.81625
3.68423
3.55883
3.43962
3.32622
3.21824
3.11533
3.01716
2.92341
2.83381
2.74809
2.66602
2.58737
2.51193
2.43953
2.36999
2.30315
2.23887
2.177
2.11744
2.06006
2.00476
1.95144
1.9
1.85036
1.80245
1.75618
1.71149
1.6683
1.62657
1.58622
1.5472
1.50946
1.47296
1.43763
1.40345
1.37037
1.33836
1.30738
1.27742
1.24844
1.22045
1.19346
1.16749
1.14258
1.11889
1.09657
1.07583
1.05706
0.0443689
0.0829981
0.10739
0.127168
0.144889
0.161622
0.177995
0.19443
0.211232
0.228629
0.246792
0.265854
0.285917
0.30706
0.329346
0.35282
0.377522
0.403479
0.430714
0.459246
0.48909
0.520261
0.552771
0.586633
0.621858
0.658458
0.696443
0.735822
0.776605
0.818798
0.862406
0.907433
0.953879
1.00174
1.05102
1.10171
1.1538
1.20727
1.26212
1.31832
1.37586
1.43471
1.49484
1.55622
1.61881
1.68259
1.7475
1.8135
1.88055
1.9486
2.01757
2.08743
2.1581
2.22951
2.30159
2.37428
2.44748
2.52113
2.59512
2.66937
2.74378
2.81826
2.8927
2.967
3.04104
3.11473
3.18793
3.26053
3.33242
3.40348
3.47358
3.54261
3.61044
3.67697
3.74209
3.8057
3.86771
3.92804
3.98663
4.04345
4.09848
4.15173
4.20326
4.25317
4.30159
4.34875
4.39493
4.4405
4.48593
4.53178
4.57875
4.62765
4.67943
4.73523
4.79631
4.8641
4.94023
5.02653
5.12498
5.23774
5.36697
5.51472
5.68256
5.87105
6.07885
6.30194
6.53255
6.7591
6.96611
7.13694
7.25811
7.32244
7.328
7.27763
7.17778
7.03703
6.86468
6.66965
6.45989
6.24202
6.0213
5.80171
5.58619
5.37678
5.17482
4.9811
4.796
4.61962
4.45181
4.29234
4.14084
3.99692
3.86017
3.73014
3.60644
3.48865
3.37639
3.26932
3.16709
3.06941
2.97597
2.88653
2.80083
2.71866
2.6398
2.56407
2.4913
2.42133
2.354
2.28919
2.22676
2.16659
2.10859
2.05265
1.99867
1.94657
1.89627
1.84769
1.80075
1.75538
1.71153
1.66914
1.62814
1.58848
1.55011
1.51299
1.47707
1.44231
1.40868
1.37615
1.3447
1.3143
1.28497
1.2567
1.22954
1.20352
1.17877
1.15542
1.13361
1.11364
0.0458591
0.0859335
0.110808
0.131007
0.1492
0.16643
0.18329
0.200178
0.217384
0.23513
0.25359
0.272902
0.293179
0.314508
0.336962
0.3606
0.385467
0.411602
0.439037
0.467799
0.497913
0.529399
0.562278
0.596568
0.632287
0.669451
0.708076
0.748176
0.789763
0.83285
0.877444
0.923553
0.971182
1.02033
1.071
1.12319
1.17689
1.23209
1.28877
1.34693
1.40654
1.46758
1.53002
1.59383
1.65897
1.72541
1.79311
1.86201
1.93206
2.00321
2.07539
2.14855
2.22261
2.2975
2.37313
2.44942
2.52627
2.60361
2.68131
2.75927
2.83738
2.91552
2.99356
3.07138
3.14882
3.22576
3.30205
3.37752
3.45201
3.52537
3.59743
3.66801
3.73695
3.80406
3.86918
3.93213
3.99277
4.05092
4.10646
4.15926
4.20921
4.25623
4.3003
4.34139
4.37957
4.41494
4.44769
4.4781
4.50654
4.53353
4.5597
4.58586
4.61293
4.64202
4.67437
4.7115
4.75518
4.80752
4.87101
4.94855
5.04347
5.15954
5.30074
5.47085
5.67225
5.90462
6.16304
6.43634
6.70383
6.94453
7.1396
7.27515
7.34408
7.34636
7.2877
7.17742
7.02637
6.84533
6.644
6.43053
6.21136
5.99142
5.77427
5.5624
5.35745
5.16041
4.97182
4.79183
4.62038
4.45725
4.30211
4.15457
4.01422
3.88064
3.75343
3.63218
3.51652
3.4061
3.30059
3.19968
3.10308
3.01054
2.92182
2.83668
2.75494
2.67639
2.60087
2.52821
2.45827
2.39091
2.326
2.26342
2.20308
2.14485
2.08865
2.0344
1.982
1.93138
1.88246
1.83518
1.78946
1.74526
1.7025
1.66114
1.62112
1.5824
1.54494
1.50869
1.47363
1.43971
1.40693
1.37527
1.34473
1.31533
1.28709
1.26005
1.23432
1.20999
1.18715
1.16606
0.0465081
0.0872558
0.112142
0.132342
0.150632
0.168032
0.185097
0.202192
0.219583
0.237479
0.256044
0.275415
0.295704
0.317004
0.339392
0.362934
0.387683
0.413685
0.44098
0.469603
0.499585
0.530955
0.56374
0.597964
0.633652
0.670825
0.709505
0.749711
0.791461
0.83477
0.879653
0.92612
0.974182
1.02384
1.07511
1.12798
1.18245
1.23851
1.29617
1.35539
1.41617
1.47849
1.54231
1.60762
1.67437
1.74253
1.81206
1.88291
1.95503
2.02836
2.10283
2.17838
2.25494
2.33243
2.41075
2.48982
2.56953
2.64979
2.73047
2.81146
2.89263
2.97384
3.05496
3.13582
3.21627
3.29614
3.37525
3.45342
3.53045
3.60614
3.68028
3.75265
3.82303
3.8912
3.95692
4.01995
4.08007
4.13704
4.19065
4.24069
4.28694
4.32925
4.36745
4.40144
4.43112
4.45648
4.47756
4.49446
4.50741
4.51674
4.52293
4.52665
4.52867
4.52986
4.53127
4.53422
4.54038
4.55184
4.57124
4.60191
4.64808
4.71508
4.80961
4.93955
5.11283
5.33536
5.60848
5.91918
6.24831
6.56982
6.85604
7.08323
7.2362
7.30995
7.30839
7.24142
7.12175
6.96253
6.77573
6.57146
6.35777
6.14071
5.9247
5.7128
5.50703
5.30865
5.11834
4.9364
4.76283
4.59744
4.43994
4.28998
4.14716
4.01107
3.88132
3.75752
3.63931
3.52633
3.41827
3.31482
3.21572
3.12069
3.02952
2.94197
2.85785
2.77697
2.69915
2.62425
2.55211
2.48259
2.41558
2.35095
2.28859
2.22841
2.17031
2.11419
2.05998
2.00759
1.95695
1.908
1.86066
1.81487
1.77058
1.72773
1.68627
1.64615
1.60732
1.56976
1.53343
1.49829
1.46434
1.43155
1.39994
1.36952
1.34031
1.31235
1.2857
1.26045
1.23665
1.21452
0.0463979
0.0871882
0.111714
0.131575
0.149642
0.166919
0.183924
0.200987
0.218347
0.236188
0.254661
0.273892
0.29399
0.315045
0.337137
0.360333
0.384691
0.410263
0.437094
0.465226
0.494697
0.525541
0.557791
0.591479
0.626634
0.663284
0.701456
0.741174
0.782462
0.825341
0.869831
0.915947
0.963705
1.01312
1.06419
1.11693
1.17134
1.22742
1.28516
1.34456
1.40561
1.46828
1.53256
1.59843
1.66584
1.73477
1.80519
1.87703
1.95026
2.02482
2.10064
2.17767
2.25581
2.335
2.41513
2.49612
2.57787
2.66026
2.74317
2.82647
2.91002
2.99369
3.0773
3.16071
3.24371
3.32614
3.40779
3.48846
3.56791
3.64592
3.72225
3.79664
3.86882
3.93852
4.00547
4.06936
4.12991
4.18682
4.2398
4.28855
4.33279
4.37225
4.40668
4.43584
4.45952
4.47756
4.48982
4.49622
4.49678
4.49157
4.48084
4.46497
4.44444
4.41972
4.39142
4.36039
4.32782
4.29539
4.26534
4.24083
4.22633
4.22815
4.25525
4.32024
4.43827
4.62172
4.87897
5.20654
5.58816
5.99414
6.38623
6.72677
6.98778
7.15568
7.23068
7.22267
7.14655
7.01844
6.85329
6.66377
6.45992
6.24932
6.03746
5.82811
5.62379
5.4261
5.23593
5.0537
4.87954
4.7133
4.55476
4.40358
4.2594
4.12184
3.99051
3.86505
3.7451
3.63034
3.52046
3.41516
3.31418
3.21728
3.12422
3.03479
2.94879
2.86605
2.7864
2.70967
2.63574
2.56446
2.49571
2.42937
2.36534
2.30352
2.24381
2.18612
2.13037
2.07649
2.02439
1.97401
1.92528
1.87813
1.83252
1.78839
1.74567
1.70434
1.66434
1.62563
1.58819
1.55199
1.51701
1.48324
1.45069
1.41936
1.38928
1.36047
1.33299
1.30689
1.2822
1.2591
0.0455922
0.0859167
0.109821
0.129103
0.146704
0.163623
0.180342
0.197159
0.214281
0.231869
0.250055
0.268952
0.288659
0.309263
0.33084
0.353458
0.377177
0.402047
0.428119
0.45544
0.484052
0.513995
0.545308
0.578027
0.612187
0.647822
0.684964
0.723643
0.763889
0.805728
0.849186
0.894285
0.941046
0.989487
1.03962
1.09147
1.14502
1.20031
1.25731
1.31604
1.37648
1.43863
1.50247
1.56799
1.63515
1.70394
1.77431
1.84622
1.91964
1.9945
2.07076
2.14834
2.22717
2.30719
2.38828
2.47035
2.55331
2.63703
2.7214
2.80628
2.89154
2.97701
3.06253
3.14792
3.233
3.31758
3.40142
3.48431
3.566
3.64625
3.72478
3.80131
3.87554
3.94717
4.01586
4.0813
4.14312
4.201
4.25455
4.30344
4.34731
4.38581
4.41859
4.44533
4.46572
4.47946
4.48627
4.48589
4.47813
4.46282
4.43993
4.40956
4.37172
4.32647
4.27386
4.21404
4.14752
4.07515
3.9983
3.91926
3.84173
3.77179
3.71902
3.69798
3.72809
3.83107
4.02774
4.33038
4.7344
5.21219
5.71558
6.18836
6.58279
6.87071
7.04505
7.11448
7.09617
7.00995
6.87458
6.70601
6.51687
6.31663
6.11214
5.9081
5.70764
5.51275
5.32461
5.14384
4.97064
4.805
4.64672
4.49554
4.35112
4.2131
4.08115
3.95492
3.83407
3.7183
3.60731
3.50083
3.39861
3.30042
3.20603
3.11524
3.02787
2.94374
2.86269
2.78457
2.70924
2.63658
2.56645
2.49875
2.43338
2.37023
2.30922
2.25025
2.19324
2.13812
2.08481
2.03324
1.98335
1.93508
1.88835
1.84314
1.79937
1.757
1.716
1.67633
1.63794
1.60083
1.56497
1.53034
1.49696
1.46484
1.43399
1.40443
1.37619
1.34931
1.3238
1.29984
0.0441322
0.0835679
0.106701
0.12528
0.142271
0.158669
0.174929
0.191321
0.208025
0.22518
0.2429
0.261283
0.280418
0.300383
0.321253
0.343097
0.36597
0.389908
0.414969
0.441204
0.468659
0.497379
0.527406
0.558782
0.591546
0.625737
0.661392
0.698547
0.737239
0.777498
0.819358
0.862847
0.907993
0.954821
1.00335
1.05361
1.1056
1.15936
1.21487
1.27215
1.33121
1.39204
1.45463
1.51897
1.58505
1.65284
1.72233
1.79346
1.86621
1.94053
2.01637
2.09366
2.17234
2.25233
2.33355
2.41589
2.49927
2.58357
2.66866
2.75441
2.84068
2.9273
3.01412
3.10095
3.18759
3.27384
3.35948
3.44427
3.52795
3.61025
3.69089
3.76957
3.84597
3.91974
3.99055
4.05801
4.12176
4.18139
4.23651
4.2867
4.33156
4.37069
4.40367
4.43011
4.44962
4.46182
4.46631
4.46272
4.45068
4.42986
4.40003
4.36096
4.31228
4.25373
4.18491
4.10545
4.01518
3.91415
3.80276
3.68206
3.55428
3.42356
3.29721
3.18735
3.11238
3.09832
3.17885
3.38919
3.75137
4.25565
4.85207
5.46327
6.01224
6.44631
6.74466
6.91193
6.96723
6.93475
6.838
6.69707
6.52781
6.34207
6.14836
5.95249
5.75838
5.56849
5.38435
5.20678
5.03615
4.87255
4.71588
4.5659
4.42235
4.28493
4.15331
4.02718
3.90625
3.79023
3.67886
3.57187
3.46904
3.37014
3.27498
3.18335
3.0951
3.01004
2.92804
2.84894
2.77262
2.69894
2.6278
2.55909
2.4927
2.42854
2.36652
2.30655
2.24856
2.19247
2.1382
2.08568
2.03486
1.98567
1.93805
1.89195
1.84732
1.80412
1.76229
1.72181
1.68264
1.64476
1.60815
1.57281
1.53873
1.50591
1.47439
1.44417
1.41525
1.38767
1.36144
1.33669
0.0421529
0.0802336
0.102543
0.12041
0.136748
0.152539
0.168228
0.184064
0.20021
0.216788
0.233896
0.251616
0.270025
0.289191
0.309178
0.330045
0.351844
0.374626
0.398441
0.423338
0.449365
0.47657
0.504997
0.534692
0.565699
0.598061
0.63182
0.667019
0.703698
0.741896
0.781652
0.823002
0.865982
0.910622
0.956955
1.00501
1.05481
1.10637
1.15973
1.21489
1.27186
1.33065
1.39126
1.4537
1.51795
1.58401
1.65185
1.72144
1.79277
1.86578
1.94043
2.01668
2.09445
2.17369
2.25429
2.33619
2.41928
2.50346
2.58859
2.67455
2.7612
2.84838
2.93592
3.02364
3.11135
3.19883
3.28585
3.37218
3.45755
3.54169
3.6243
3.70506
3.78364
3.85969
3.93283
4.00268
4.06883
4.13084
4.18829
4.24074
4.28772
4.32881
4.36354
4.39149
4.4122
4.42522
4.43011
4.42639
4.4136
4.39134
4.3592
4.31659
4.2631
4.19818
4.12117
4.03146
3.92848
3.81177
3.68108
3.53658
3.37917
3.21101
3.03629
2.86236
2.70144
2.57361
2.51151
2.56427
2.79027
3.22706
3.85216
4.57666
5.28502
5.88478
6.32977
6.61494
6.75965
6.79281
6.74354
6.63692
6.4927
6.32559
6.14605
5.96126
5.77599
5.59332
5.41514
5.24254
5.07609
4.91599
4.76223
4.61468
4.47313
4.33732
4.20698
4.08185
3.96166
3.84615
3.73509
3.62826
3.52543
3.42642
3.33103
3.23909
3.15043
3.06492
2.9824
2.90273
2.82581
2.7515
2.67971
2.61032
2.54324
2.47838
2.41565
2.35497
2.29626
2.23946
2.18448
2.13126
2.07973
2.02985
1.98155
1.93477
1.88947
1.8456
1.80313
1.76201
1.72221
1.68372
1.6465
1.61057
1.5759
1.54251
1.51041
1.47961
1.4501
1.42191
1.39504
1.36961
0.0398354
0.076099
0.0975407
0.11472
0.130404
0.145546
0.160582
0.175757
0.191224
0.207094
0.22345
0.240365
0.2579
0.276113
0.295058
0.314786
0.335346
0.356787
0.379156
0.402502
0.426874
0.45232
0.478887
0.506623
0.535577
0.565796
0.597328
0.63022
0.664519
0.70027
0.737518
0.776308
0.816681
0.85868
0.902343
0.947708
0.994809
1.04368
1.09435
1.14684
1.20117
1.25737
1.31544
1.3754
1.43724
1.50097
1.56657
1.63403
1.70333
1.77443
1.8473
1.9219
1.99817
2.07604
2.15545
2.23631
2.31853
2.40201
2.48662
2.57224
2.65873
2.74595
2.83371
2.92185
3.01017
3.09845
3.18648
3.27401
3.36078
3.4465
3.53088
3.6136
3.69432
3.77267
3.84827
3.92072
3.98959
4.05444
4.1148
4.17021
4.2202
4.2643
4.30204
4.33294
4.35652
4.37229
4.37974
4.37835
4.36761
4.34706
4.31611
4.27384
4.21992
4.15364
4.07423
3.9809
3.87283
3.74927
3.60953
3.45329
3.28077
3.09313
2.89302
2.68514
2.47695
2.28021
2.11467
2.01671
2.05173
2.30936
2.84475
3.6045
4.44234
5.20874
5.81381
6.23213
6.4793
6.58817
6.59397
6.52745
6.41285
6.2681
6.10587
5.93486
5.76081
5.58747
5.41716
5.25127
5.09055
4.93538
4.78586
4.64193
4.50348
4.3703
4.24218
4.11891
4.00026
3.88602
3.77599
3.66996
3.56776
3.4692
3.37413
3.28238
3.19382
3.1083
3.02569
2.94588
2.86875
2.79418
2.72208
2.65236
2.58491
2.51966
2.45652
2.39542
2.33627
2.27901
2.22357
2.16988
2.11789
2.06753
2.01875
1.97149
1.92572
1.88137
1.83842
1.79683
1.75657
1.7176
1.67993
1.64352
1.60839
1.57453
1.54196
1.51067
1.48067
1.45196
1.42454
1.39852
0.03717
0.0713337
0.0918543
0.108349
0.123383
0.137858
0.1522
0.166651
0.181361
0.196431
0.211935
0.227932
0.244475
0.261609
0.279381
0.297833
0.317012
0.33696
0.357726
0.379356
0.401899
0.425404
0.449921
0.475502
0.502197
0.530059
0.55914
0.589492
0.621168
0.654219
0.688699
0.724659
0.762148
0.801218
0.841917
0.88429
0.928384
0.97424
1.0219
1.07139
1.12276
1.17602
1.2312
1.28832
1.3474
1.40843
1.47143
1.53638
1.60327
1.67208
1.74278
1.81534
1.88971
1.96583
2.04363
2.12304
2.20398
2.28635
2.37003
2.4549
2.54084
2.62768
2.71528
2.80345
2.892
2.98074
3.06943
3.15785
3.24572
3.33277
3.41872
3.50322
3.58595
3.66654
3.7446
3.81973
3.89149
3.95943
4.02308
4.08195
4.13556
4.18343
4.22506
4.25997
4.28764
4.30753
4.3191
4.32177
4.31499
4.29814
4.27016
4.23051
4.17858
4.11351
4.03438