/*--------------------------------*- C++ -*----------------------------------*\
| =========                 |                                                 |
| \\      /  F ield         | OpenFOAM: The Open Source CFD Toolbox           |
|  \\    /   O peration     | Version:  1.4.2                                 |
|   \\  /    A nd           | Web:      http://www.openfoam.org               |
|    \\/     M anipulation  |                                                 |
\*---------------------------------------------------------------------------*/
FoamFile
{
    version     2.0;
    format      ascii;
    class       volScalarField;
    object      p;
    location    "450";
}
// * * * * * * * * * * * * * * * * * * * * * * * * * * * * * * * * * * * * * //

dimensions      [0 2 -2 0 0 0 0];

internalField   nonuniform List<scalar> 
12225
(
-3.49762
-4.33501
-4.58376
-4.68045
-4.78499
-4.88721
-4.97704
-5.05813
-5.13441
-5.20757
-5.27862
-5.34863
-5.41887
-5.49096
-5.56724
-5.65164
-5.75082
-5.89097
-3.66395
-4.34216
-4.58174
-4.68204
-4.7856
-4.88612
-4.97476
-5.05493
-5.13034
-5.20264
-5.27284
-5.34203
-5.41144
-5.48262
-5.55779
-5.64048
-5.73671
-5.86234
-3.843
-4.33811
-4.57095
-4.67971
-4.78344
-4.88254
-4.9705
-5.05035
-5.12542
-5.19733
-5.26708
-5.33571
-5.40436
-5.47439
-5.54754
-5.62613
-5.71224
-5.80753
-4.00018
-4.35569
-4.57385
-4.68698
-4.78914
-4.88575
-4.97237
-5.05147
-5.12593
-5.19725
-5.26639
-5.33427
-5.40189
-5.4703
-5.54064
-5.61397
-5.68983
-5.76526
-4.13006
-4.38713
-4.5845
-4.69818
-4.79796
-4.89169
-4.97651
-5.05441
-5.12784
-5.19816
-5.26626
-5.33295
-5.39901
-5.46516
-5.53194
-5.59942
-5.66585
-5.727
-4.2432
-4.42696
-4.60016
-4.71131
-4.80795
-4.89861
-4.98147
-5.05803
-5.1303
-5.19949
-5.26637
-5.33162
-5.3958
-5.45931
-5.52223
-5.58397
-5.64239
-5.69358
-4.34356
-4.47264
-4.62059
-4.72638
-4.81898
-4.90606
-4.98651
-5.06141
-5.13231
-5.20017
-5.26564
-5.32922
-5.39127
-5.45192
-5.51091
-5.56735
-5.61921
-5.66344
-4.41983
-4.51461
-4.64173
-4.741
-4.82939
-4.91296
-4.99094
-5.06405
-5.13344
-5.1999
-5.26391
-5.32584
-5.3859
-5.44402
-5.49981
-5.5523
-5.59976
-5.63987
-4.48098
-4.55282
-4.66252
-4.75541
-4.83963
-4.91981
-4.99533
-5.06658
-5.13439
-5.19937
-5.26189
-5.32218
-5.38032
-5.43617
-5.48923
-5.53861
-5.5829
-5.62026
-4.54125
-4.59459
-4.68696
-4.77242
-4.85174
-4.92796
-5.00056
-5.06956
-5.13545
-5.19862
-5.25933
-5.31769
-5.37367
-5.42704
-5.47733
-5.52374
-5.56522
-5.60035
-4.59983
-4.63894
-4.71497
-4.79204
-4.86576
-4.93749
-5.00667
-5.07298
-5.13656
-5.19761
-5.2562
-5.31236
-5.36597
-5.41677
-5.46431
-5.50797
-5.54701
-5.58042
-4.6559
-4.68457
-4.74601
-4.81409
-4.88164
-4.94842
-5.0137
-5.07686
-5.13774
-5.1963
-5.2525
-5.30622
-5.35731
-5.4055
-5.4504
-5.49159
-5.52856
-5.56066
-4.70865
-4.72993
-4.77903
-4.83807
-4.8991
-4.96058
-5.02155
-5.08116
-5.13897
-5.19473
-5.24825
-5.29936
-5.34785
-5.39345
-5.43591
-5.4749
-5.51016
-5.54125
-4.75714
-4.77329
-4.81248
-4.863
-4.91747
-4.97353
-5.02995
-5.0857
-5.14015
-5.19285
-5.24352
-5.29191
-5.33778
-5.38093
-5.42114
-5.45823
-5.49206
-5.52238
-4.79998
-4.81265
-4.84427
-4.88734
-4.93562
-4.98642
-5.03827
-5.09007
-5.14102
-5.19056
-5.23832
-5.28399
-5.32735
-5.3682
-5.40641
-5.44187
-5.47452
-5.50423
-4.83519
-4.84557
-4.87176
-4.90887
-4.9518
-4.99787
-5.04551
-5.09355
-5.14112
-5.1876
-5.23255
-5.27566
-5.31669
-5.35549
-5.39196
-5.42605
-5.45772
-5.48691
-4.85981
-4.86879
-4.89155
-4.92453
-4.96349
-5.00586
-5.05006
-5.09494
-5.1396
-5.1834
-5.2259
-5.26678
-5.30583
-5.3429
-5.37793
-5.4109
-5.44177
-5.47054
-4.86862
-4.87713
-4.89869
-4.93002
-4.96715
-5.0076
-5.04987
-5.09282
-5.13561
-5.17762
-5.21843
-5.25776
-5.2954
-5.33125
-5.36526
-5.39742
-5.42771
-5.45612
-4.86073
-4.86971
-4.89235
-4.92465
-4.96229
-5.00284
-5.04488
-5.08738
-5.12955
-5.17083
-5.21086
-5.2494
-5.28631
-5.32149
-5.35493
-5.38662
-5.41655
-5.44474
-4.83997
-4.85043
-4.87628
-4.91175
-4.95173
-4.99388
-5.03699
-5.0801
-5.12254
-5.16385
-5.20376
-5.24208
-5.27872
-5.31362
-5.34679
-5.37823
-5.40798
-5.43602
-4.80889
-4.82218
-4.85365
-4.89425
-4.93791
-4.9827
-5.02769
-5.07209
-5.11534
-5.15714
-5.19731
-5.23574
-5.27238
-5.30723
-5.34031
-5.37164
-5.40128
-5.42921
-4.76872
-4.78696
-4.82702
-4.87447
-4.92269
-4.97074
-5.0181
-5.06414
-5.10848
-5.15098
-5.1916
-5.23031
-5.26711
-5.30203
-5.3351
-5.3664
-5.39595
-5.42376
-4.71972
-4.7464
-4.79868
-4.85428
-4.90744
-4.95903
-5.00896
-5.05673
-5.10222
-5.1455
-5.18664
-5.2257
-5.26272
-5.29776
-5.33089
-5.36218
-5.39168
-5.41935
-4.66132
-4.70215
-4.7708
-4.83508
-4.89306
-4.9482
-5.00066
-5.05008
-5.09667
-5.14069
-5.18234
-5.22175
-5.259
-5.2942
-5.32741
-5.35872
-5.38816
-5.41567
-4.5923
-4.65611
-4.74535
-4.81784
-4.88009
-4.93861
-4.9934
-5.04426
-5.09177
-5.13642
-5.17851
-5.21821
-5.25568
-5.29104
-5.32437
-5.35574
-5.38517
-5.41252
-4.51088
-4.61061
-4.72384
-4.80293
-4.86859
-4.93016
-4.98697
-5.03901
-5.08725
-5.13239
-5.17482
-5.21478
-5.25245
-5.28799
-5.3215
-5.35304
-5.38257
-5.40986
-4.41358
-4.56927
-4.70743
-4.79022
-4.85845
-4.9228
-4.98136
-5.03437
-5.08323
-5.12884
-5.17163
-5.21189
-5.24984
-5.28565
-5.31948
-5.35138
-5.38128
-5.40887
-4.28876
-4.53793
-4.69868
-4.78057
-4.85033
-4.91717
-4.97723
-5.03101
-5.08038
-5.12637
-5.16945
-5.20994
-5.24809
-5.28412
-5.31823
-5.35053
-5.38101
-5.40939
-4.1278
-4.52713
-4.70579
-4.78161
-4.85099
-4.91922
-4.97995
-5.03391
-5.08334
-5.12938
-5.1725
-5.21301
-5.25119
-5.28729
-5.32155
-5.35424
-5.38553
-5.41587
-3.9649
-4.51058
-4.70577
-4.77892
-4.84886
-4.91844
-4.97994
-5.03429
-5.08402
-5.13034
-5.17372
-5.21447
-5.2529
-5.28926
-5.32382
-5.35696
-5.38918
-5.42447
-6.0788
-6.07821
-6.07915
-6.08143
-6.08439
-6.08758
-6.09083
-6.09424
-6.09786
-6.10173
-6.10599
-6.11125
-6.11797
-6.12619
-6.13598
-6.1475
-6.16085
-6.17611
-6.19334
-6.21256
-6.23383
-6.25724
-6.28278
-6.31021
-6.33942
-6.37041
-6.40317
-6.43764
-6.47378
-6.51154
-6.55087
-6.59172
-6.63405
-6.6778
-6.72294
-6.76943
-6.81722
-6.86627
-6.91654
-6.968
-7.0206
-7.0743
-7.12907
-7.18488
-7.2417
-7.2995
-7.35826
-7.41793
-7.47849
-7.53991
-7.60215
-7.66518
-7.72898
-7.79351
-7.85875
-7.92466
-7.99122
-8.0584
-8.12614
-8.19441
-8.26316
-8.33234
-8.40188
-8.47169
-8.5417
-8.61177
-8.68178
-8.75157
-8.82095
-8.88969
-8.95754
-9.02417
-9.08923
-9.15226
-9.21273
-9.27001
-9.32335
-9.37185
-9.41447
-9.44997
-9.47687
-9.49345
-9.49772
-9.48738
-9.45981
-9.41195
-9.34021
-9.24052
-9.1084
-8.93908
-8.72753
-8.46802
-8.15382
-7.7775
-7.33211
-6.81166
-6.21111
-5.52658
-4.75595
-3.89933
-2.95953
-1.94235
-0.856627
0.285847
1.47077
2.68194
3.90202
5.11344
6.29923
7.44393
8.53421
9.55944
10.5119
11.3868
12.1822
12.8987
13.5392
14.1092
14.6211
15.0811
15.4852
15.8341
16.1335
16.3893
16.607
16.7916
16.9476
17.0791
17.1896
17.2821
17.3595
17.4238
17.4772
17.5213
17.5575
17.5871
17.6111
17.6303
17.6454
17.6572
17.6661
17.6725
17.6767
17.6791
17.68
17.6795
17.6779
17.6752
17.6716
17.6673
17.6623
17.6566
17.6504
17.6438
17.6367
17.6292
17.6213
17.6131
17.6047
17.596
17.5871
17.5781
17.5689
17.5596
17.5503
17.541
17.5318
17.5228
17.5143
17.5065
17.4999
17.4948
17.4922
17.4932
17.4997
17.5149
17.5442
17.5967
17.6968
17.8649
-6.07901
-6.0789
-6.07982
-6.08167
-6.08363
-6.08546
-6.08726
-6.08911
-6.09111
-6.09334
-6.09601
-6.09943
-6.104
-6.11003
-6.11771
-6.12718
-6.13857
-6.15195
-6.16736
-6.18483
-6.20435
-6.22582
-6.24913
-6.27434
-6.30152
-6.33059
-6.36146
-6.39407
-6.42837
-6.46431
-6.50183
-6.54089
-6.58144
-6.62344
-6.66683
-6.71159
-6.75767
-6.80503
-6.85363
-6.90343
-6.95439
-7.00646
-7.05963
-7.11384
-7.16907
-7.2253
-7.28248
-7.3406
-7.39962
-7.45951
-7.52025
-7.5818
-7.64414
-7.70723
-7.77105
-7.83557
-7.90075
-7.96655
-8.03294
-8.09988
-8.16733
-8.23522
-8.30351
-8.37211
-8.44095
-8.50991
-8.57887
-8.64769
-8.71618
-8.78414
-8.85133
-8.91747
-8.98221
-9.04514
-9.10577
-9.16351
-9.21768
-9.26745
-9.31185
-9.34974
-9.37977
-9.40034
-9.40961
-9.40545
-9.38541
-9.34663
-9.2858
-9.19909
-9.08235
-8.93121
-8.74094
-8.50586
-8.21894
-7.87287
-7.4612
-6.97811
-6.41832
-5.77756
-5.05307
-4.24413
-3.35247
-2.38258
-1.3419
-0.240731
0.908051
2.08951
3.28734
4.48465
5.66483
6.81238
7.9136
8.95704
9.93369
10.837
11.6634
12.4125
13.0878
13.6958
14.2395
14.7207
15.1431
15.5112
15.8305
16.1062
16.3434
16.5468
16.7208
16.8692
16.9956
17.1029
17.194
17.271
17.336
17.3908
17.4369
17.4755
17.5078
17.5346
17.5567
17.5748
17.5894
17.6012
17.6103
17.6172
17.6223
17.6256
17.6275
17.6281
17.6275
17.626
17.6236
17.6203
17.6164
17.6118
17.6067
17.601
17.5948
17.5882
17.5812
17.5739
17.5663
17.5585
17.5504
17.5422
17.5339
17.5255
17.5172
17.5091
17.5014
17.4945
17.4886
17.4844
17.4826
17.4846
17.4921
17.5083
17.5386
17.5908
17.6859
17.8158
-6.07264
-6.07392
-6.07571
-6.07764
-6.07947
-6.08114
-6.08254
-6.08382
-6.08529
-6.08715
-6.08963
-6.09297
-6.09742
-6.10318
-6.11043
-6.1193
-6.12991
-6.14233
-6.15664
-6.17286
-6.19103
-6.21112
-6.2331
-6.25692
-6.28258
-6.31004
-6.33925
-6.37017
-6.40277
-6.437
-6.47282
-6.51019
-6.54906
-6.58939
-6.63114
-6.67427
-6.71875
-6.76452
-6.81157
-6.85984
-6.9093
-6.95992
-7.01166
-7.06449
-7.11838
-7.1733
-7.22921
-7.28608
-7.34388
-7.40259
-7.46217
-7.52259
-7.58383
-7.64586
-7.70864
-7.77215
-7.83636
-7.90123
-7.96672
-8.0328
-8.09942
-8.16654
-8.23408
-8.30199
-8.37017
-8.43854
-8.50696
-8.57532
-8.64344
-8.71113
-8.77818
-8.8443
-8.90919
-8.97247
-9.03367
-9.09226
-9.1476
-9.19892
-9.24532
-9.28573
-9.3189
-9.34336
-9.35737
-9.35897
-9.34587
-9.31539
-9.26443
-9.18941
-9.08651
-8.95175
-8.7807
-8.56759
-8.30522
-7.98679
-7.60634
-7.15791
-6.63605
-6.03615
-5.35497
-4.59103
-3.74511
-2.82061
-1.82372
-0.763478
0.348479
1.49832
2.67066
3.8493
5.01802
6.16138
7.26528
8.31734
9.30718
10.2272
11.0741
11.85
12.5586
13.2001
13.775
14.2868
14.7389
15.1361
15.4832
15.7855
16.0476
16.2744
16.4701
16.6386
16.7834
16.9077
17.0142
17.1054
17.1834
17.2501
17.3069
17.3553
17.3965
17.4315
17.4611
17.486
17.5069
17.5243
17.5388
17.5505
17.56
17.5674
17.573
17.5771
17.5798
17.5813
17.5816
17.581
17.5794
17.5771
17.574
17.5702
17.5658
17.5609
17.5555
17.5496
17.5434
17.5368
17.53
17.5228
17.5156
17.5082
17.5008
17.4936
17.4868
17.4806
17.4755
17.472
17.4709
17.4735
17.4814
17.4975
17.5264
17.5736
17.6543
17.7402
-6.0601
-6.06342
-6.06704
-6.06988
-6.07208
-6.07381
-6.07531
-6.07682
-6.0786
-6.08086
-6.08379
-6.08761
-6.09249
-6.0986
-6.10608
-6.11506
-6.12564
-6.1379
-6.15191
-6.1677
-6.18531
-6.20475
-6.22601
-6.24908
-6.27393
-6.30053
-6.32886
-6.35889
-6.39058
-6.4239
-6.45881
-6.49526
-6.53323
-6.57268
-6.61356
-6.65583
-6.69946
-6.74442
-6.79066
-6.83814
-6.88684
-6.93671
-6.98774
-7.03987
-7.09308
-7.14735
-7.20263
-7.2589
-7.31614
-7.3743
-7.43336
-7.4933
-7.55408
-7.61567
-7.67805
-7.74119
-7.80505
-7.86962
-7.93485
-8.00071
-8.06717
-8.13416
-8.20165
-8.26955
-8.3378
-8.40632
-8.47498
-8.54369
-8.61228
-8.68058
-8.7484
-8.81547
-8.88152
-8.94619
-9.00906
-9.06964
-9.12733
-9.18143
-9.23111
-9.27536
-9.31302
-9.34271
-9.36282
-9.37149
-9.36656
-9.34549
-9.30532
-9.24267
-9.15393
-9.03537
-8.88259
-8.68943
-8.44882
-8.15442
-7.80023
-7.38004
-6.88803
-6.31911
-5.66936
-4.93656
-4.12059
-3.22392
-2.25189
-1.21275
-0.117564
1.02023
2.18542
3.36176
4.53271
5.68211
6.79467
7.85671
8.85743
9.79125
10.6589
11.4604
12.1933
12.8569
13.4535
13.9861
14.4583
14.8746
15.2398
15.559
15.8371
16.0787
16.2883
16.4696
16.6263
16.7616
16.8784
16.979
17.0657
17.1404
17.2046
17.2599
17.3074
17.3482
17.3832
17.4131
17.4387
17.4604
17.4788
17.4942
17.5071
17.5177
17.5263
17.5332
17.5384
17.5423
17.5449
17.5463
17.5467
17.5462
17.5448
17.5426
17.5397
17.5362
17.5321
17.5274
17.5224
17.5169
17.511
17.5048
17.4984
17.4918
17.4852
17.4787
17.4725
17.4668
17.4622
17.4591
17.4582
17.4607
17.4681
17.4825
17.5076
17.5461
17.6081
17.6573
-6.044
-6.04943
-6.05538
-6.05953
-6.06247
-6.0649
-6.06717
-6.06951
-6.07213
-6.07524
-6.07901
-6.08361
-6.0892
-6.09591
-6.10389
-6.11324
-6.12408
-6.13648
-6.15051
-6.16622
-6.18364
-6.2028
-6.2237
-6.24634
-6.27071
-6.29679
-6.32456
-6.35399
-6.38506
-6.41775
-6.452
-6.48781
-6.52512
-6.5639
-6.60411
-6.64573
-6.6887
-6.73301
-6.77861
-6.82547
-6.87355
-6.92283
-6.97327
-7.02484
-7.07751
-7.13124
-7.18601
-7.24179
-7.29855
-7.35626
-7.4149
-7.47444
-7.53484
-7.59609
-7.65816
-7.72102
-7.78466
-7.84903
-7.91413
-7.9799
-8.04632
-8.11335
-8.18092
-8.249
-8.31751
-8.38638
-8.45553
-8.52484
-8.59418
-8.66341
-8.73235
-8.80077
-8.86841
-8.93497
-9.00005
-9.06322
-9.12394
-9.18155
-9.2353
-9.28428
-9.32739
-9.36336
-9.39068
-9.40762
-9.41214
-9.40183
-9.37385
-9.325
-9.25186
-9.15086
-9.01747
-8.84523
-8.62734
-8.35769
-8.02987
-7.63735
-7.17379
-6.6334
-6.01145
-5.30471
-4.51206
-3.635
-2.67799
-1.64869
-0.557825
0.581177
1.75276
2.93996
4.12505
5.29023
6.41871
7.49661
8.51585
9.47498
10.3697
11.1935
11.9447
12.6243
13.2351
13.7807
14.2649
14.6924
15.0682
15.3974
15.6849
15.9355
16.1534
16.3427
16.5069
16.6493
16.7727
16.8797
16.9723
17.0525
17.1221
17.1823
17.2344
17.2796
17.3186
17.3524
17.3815
17.4066
17.4281
17.4465
17.4621
17.4753
17.4863
17.4954
17.5028
17.5087
17.5131
17.5163
17.5183
17.5193
17.5194
17.5185
17.5169
17.5146
17.5116
17.508
17.5039
17.4993
17.4943
17.4889
17.4832
17.4772
17.4712
17.4652
17.4594
17.4541
17.4497
17.4466
17.4454
17.4472
17.4531
17.4646
17.4843
17.5125
17.556
17.5758
-6.02759
-6.03469
-6.0427
-6.04829
-6.05233
-6.05582
-6.05914
-6.06254
-6.06622
-6.07036
-6.07512
-6.08066
-6.08712
-6.09462
-6.1033
-6.11325
-6.12459
-6.13739
-6.15172
-6.16764
-6.18518
-6.20438
-6.22523
-6.24776
-6.27194
-6.29778
-6.32526
-6.35436
-6.38506
-6.41734
-6.45117
-6.48652
-6.52336
-6.56166
-6.60138
-6.64248
-6.68495
-6.72873
-6.77381
-6.82015
-6.86773
-6.91651
-6.96646
-7.01755
-7.06975
-7.12304
-7.17737
-7.23274
-7.2891
-7.34644
-7.40474
-7.46395
-7.52407
-7.58507
-7.64693
-7.70963
-7.77315
-7.83746
-7.90254
-7.96837
-8.0349
-8.10212
-8.16997
-8.23842
-8.30741
-8.37687
-8.44674
-8.51693
-8.58733
-8.6578
-8.7282
-8.79832
-8.86795
-8.9368
-9.00455
-9.0708
-9.13505
-9.19673
-9.25515
-9.30946
-9.35868
-9.40162
-9.4369
-9.46287
-9.47762
-9.47888
-9.46394
-9.42973
-9.37301
-9.29026
-9.1769
-9.0264
-8.83207
-8.5877
-8.28653
-7.92156
-7.48583
-6.97277
-6.37662
-5.69304
-4.91972
-4.05707
-3.10865
-2.08149
-0.986137
0.16363
1.35127
2.55818
3.7646
4.95118
6.10137
7.20414
8.25403
9.24244
10.1592
11.0005
11.766
12.4574
13.078
13.6317
14.1232
14.5573
14.9392
15.2741
15.5672
15.823
16.0461
16.2403
16.4094
16.5565
16.6845
16.7959
16.8929
16.9773
17.0508
17.1148
17.1706
17.2192
17.2615
17.2984
17.3306
17.3585
17.3827
17.4036
17.4216
17.4371
17.4503
17.4614
17.4706
17.4782
17.4844
17.4891
17.4926
17.495
17.4963
17.4967
17.4962
17.495
17.493
17.4903
17.4871
17.4833
17.479
17.4743
17.4692
17.4639
17.4583
17.4527
17.4472
17.4421
17.4376
17.4342
17.4324
17.433
17.4367
17.4445
17.458
17.4758
17.5026
17.4985
-6.01329
-6.02163
-6.0313
-6.0382
-6.04333
-6.04784
-6.05217
-6.05658
-6.06124
-6.06636
-6.07208
-6.07855
-6.08588
-6.09422
-6.10366
-6.11432
-6.12628
-6.13963
-6.15443
-6.17074
-6.18858
-6.20799
-6.22899
-6.25157
-6.27575
-6.30152
-6.32887
-6.35779
-6.38826
-6.42028
-6.4538
-6.48882
-6.52529
-6.56319
-6.6025
-6.64318
-6.6852
-6.72853
-6.77316
-6.81905
-6.86617
-6.9145
-6.96401
-7.01466
-7.06644
-7.11932
-7.17327
-7.22827
-7.28429
-7.34132
-7.39932
-7.45829
-7.5182
-7.57904
-7.64078
-7.70341
-7.76692
-7.83129
-7.8965
-7.96252
-8.02934
-8.09692
-8.16525
-8.23428
-8.30397
-8.37428
-8.44516
-8.51652
-8.58827
-8.66032
-8.73253
-8.80473
-8.87674
-8.94832
-9.01917
-9.08895
-9.15722
-9.22346
-9.28706
-9.34724
-9.40311
-9.45358
-9.49735
-9.53291
-9.55844
-9.57181
-9.57043
-9.55137
-9.51147
-9.44727
-9.35419
-9.22591
-9.05562
-8.83675
-8.56219
-8.22447
-7.81594
-7.3291
-6.75705
-6.09416
-5.3368
-4.4841
-3.53854
-2.50642
-1.39832
-0.229013
0.982928
2.21643
3.45001
4.66507
5.84807
6.98734
8.06897
9.08056
10.0152
10.8703
11.6462
12.3453
12.9713
13.5291
14.0236
14.4602
14.8444
15.1815
15.4767
15.7348
15.9603
16.1571
16.3289
16.4788
16.6097
16.724
16.824
16.9113
16.9878
17.0548
17.1134
17.1648
17.2099
17.2495
17.2841
17.3145
17.341
17.3642
17.3844
17.4019
17.417
17.4299
17.4409
17.4501
17.4577
17.4639
17.4688
17.4724
17.475
17.4765
17.4771
17.4768
17.4757
17.474
17.4715
17.4685
17.4649
17.4608
17.4563
17.4514
17.4462
17.4409
17.4356
17.4304
17.4258
17.4218
17.4191
17.418
17.4192
17.4229
17.4299
17.4377
17.4498
17.4264
-6.00312
-6.01217
-6.02282
-6.03055
-6.03643
-6.04168
-6.04676
-6.05191
-6.05734
-6.06323
-6.06973
-6.07698
-6.0851
-6.09419
-6.10438
-6.11574
-6.12835
-6.1423
-6.15762
-6.17438
-6.1926
-6.2123
-6.23351
-6.25624
-6.2805
-6.30628
-6.33358
-6.3624
-6.39272
-6.42454
-6.45782
-6.49255
-6.52871
-6.56627
-6.6052
-6.64549
-6.6871
-6.73003
-6.77423
-6.8197
-6.8664
-6.91431
-6.96341
-7.01367
-7.06506
-7.11756
-7.17116
-7.22584
-7.28156
-7.33833
-7.39611
-7.4549
-7.51467
-7.57543
-7.63715
-7.69983
-7.76344
-7.82799
-7.89346
-7.95984
-8.0271
-8.09525
-8.16424
-8.23408
-8.30472
-8.37614
-8.44829
-8.52112
-8.59456
-8.66852
-8.74289
-8.81755
-8.89234
-8.96705
-9.04143
-9.11518
-9.18791
-9.25917
-9.3284
-9.3949
-9.45786
-9.51627
-9.56894
-9.61445
-9.6511
-9.67687
-9.68931
-9.68558
-9.66257
-9.61683
-9.54401
-9.43798
-9.29168
-9.09804
-8.84962
-8.53843
-8.15611
-7.69416
-7.14445
-6.49989
-5.75532
-4.90839
-3.96015
-2.91608
-1.78736
-0.590664
0.652586
1.91938
3.18908
4.44584
5.67169
6.84607
7.95389
8.98517
9.93423
10.7993
11.5813
12.2836
12.9107
13.468
13.9613
14.3965
14.7793
15.1153
15.4097
15.6673
15.8928
16.0899
16.2625
16.4136
16.5458
16.6618
16.7636
16.8529
16.9315
17.0007
17.0616
17.1153
17.1626
17.2044
17.2412
17.2737
17.3023
17.3275
17.3496
17.3689
17.3858
17.4004
17.4129
17.4237
17.4327
17.4403
17.4464
17.4513
17.4549
17.4575
17.4591
17.4597
17.4595
17.4585
17.4568
17.4545
17.4515
17.448
17.444
17.4395
17.4347
17.4296
17.4243
17.4191
17.414
17.4094
17.4055
17.4026
17.4009
17.4004
17.4009
17.3995
17.3988
17.3598
-5.99779
-6.00686
-6.01767
-6.02568
-6.03187
-6.03747
-6.04293
-6.0485
-6.05439
-6.06078
-6.06783
-6.07566
-6.08438
-6.09411
-6.10491
-6.11688
-6.13007
-6.14455
-6.16035
-6.17752
-6.19609
-6.21608
-6.23751
-6.26039
-6.28473
-6.31054
-6.33782
-6.36656
-6.39675
-6.42839
-6.46145
-6.49591
-6.53177
-6.569
-6.60759
-6.6475
-6.68874
-6.73127
-6.77509
-6.82015
-6.86646
-6.91398
-6.96269
-7.01257
-7.0636
-7.11577
-7.16906
-7.22345
-7.27893
-7.33549
-7.39312
-7.4518
-7.51153
-7.57229
-7.63409
-7.69692
-7.76076
-7.82562
-7.8915
-7.95838
-8.02627
-8.09516
-8.16504
-8.2359
-8.30774
-8.38052
-8.45423
-8.52883
-8.60426
-8.68047
-8.75738
-8.83487
-8.91283
-8.99108
-9.0694
-9.14754
-9.22516
-9.30186
-9.37712
-9.45034
-9.52075
-9.58745
-9.64932
-9.70502
-9.75297
-9.79124
-9.81751
-9.82903
-9.82265
-9.79497
-9.74189
-9.65757
-9.53459
-9.36527
-9.14181
-8.85574
-8.49795
-8.05894
-7.52924
-6.90018
-6.16488
-5.31921
-4.36255
-3.29962
-2.14311
-0.911956
0.370195
1.68084
3.00093
4.30714
5.57269
6.77769
7.90821
8.95522
9.91413
10.7841
11.5674
12.2679
12.8914
13.4438
13.9319
14.3618
14.7396
15.0713
15.3621
15.6169
15.8401
16.0358
16.2074
16.3581
16.4906
16.6072
16.7098
16.8004
16.8804
16.9512
17.0138
17.0693
17.1185
17.1622
17.201
17.2353
17.2658
17.2928
17.3167
17.3377
17.3562
17.3724
17.3864
17.3986
17.409
17.4178
17.4251
17.4311
17.4358
17.4394
17.4419
17.4434
17.4441
17.4439
17.4429
17.4412
17.4388
17.4358
17.4323
17.4282
17.4236
17.4186
17.4134
17.4079
17.4024
17.397
17.3917
17.3868
17.3821
17.3772
17.3717
17.3618
17.3501
17.2986
-5.99651
-6.00499
-6.01526
-6.02305
-6.02916
-6.03474
-6.04026
-6.04594
-6.05202
-6.05866
-6.06603
-6.07423
-6.08336
-6.09352
-6.10478
-6.11719
-6.13081
-6.14569
-6.16185
-6.17933
-6.19815
-6.21834
-6.23992
-6.2629
-6.28729
-6.3131
-6.34032
-6.36895
-6.399
-6.43044
-6.46327
-6.49747
-6.53302
-6.56993
-6.60817
-6.64773
-6.6886
-6.73076
-6.77419
-6.81888
-6.86481
-6.91196
-6.96031
-7.00984
-7.06055
-7.11242
-7.16544
-7.21961
-7.27491
-7.33133
-7.38886
-7.44752
-7.50727
-7.56814
-7.63011
-7.69319
-7.75739
-7.82269
-7.88912
-7.95667
-8.02535
-8.09517
-8.16613
-8.23824
-8.3115
-8.3859
-8.46143
-8.53808
-8.61582
-8.6946
-8.77438
-8.85507
-8.93658
-9.01875
-9.10142
-9.18435
-9.26726
-9.34979
-9.43148
-9.51178
-9.58999
-9.66528
-9.7366
-9.80269
-9.86203
-9.91281
-9.95278
-9.97925
-9.98906
-9.97876
-9.9445
-9.8808
-9.77979
-9.63313
-9.43266
-9.1694
-8.83352
-8.41444
-7.90132
-7.28375
-6.55292
-5.70286
-4.73139
-3.64264
-2.45145
-1.17756
0.154927
1.52346
2.89992
4.25259
5.55487
6.78686
7.93519
8.99206
9.95442
10.823
11.6013
12.2945
12.9091
13.4521
13.9306
14.3515
14.7213
15.0458
15.3303
15.58
15.7993
15.9919
16.1612
16.3104
16.442
16.5583
16.6612
16.7523
16.8331
16.9051
16.9691
17.026
17.0768
17.1222
17.1626
17.1987
17.2309
17.2596
17.2851
17.3077
17.3278
17.3454
17.3609
17.3745
17.3862
17.3962
17.4047
17.4117
17.4175
17.422
17.4254
17.4278
17.4292
17.4298
17.4295
17.4284
17.4266
17.4241
17.421
17.4172
17.4129
17.408
17.4027
17.397
17.3909
17.3845
17.3778
17.3707
17.363
17.354
17.3427
17.3252
17.3042
17.2425
-5.99823
-6.0056
-6.01471
-6.02182
-6.0275
-6.03277
-6.03807
-6.04365
-6.04971
-6.05642
-6.06391
-6.07229
-6.08165
-6.09205
-6.10356
-6.11622
-6.13008
-6.14517
-6.16152
-6.17915
-6.1981
-6.21837
-6.23999
-6.26297
-6.28732
-6.31305
-6.34015
-6.36863
-6.39847
-6.42968
-6.46225
-6.49615
-6.5314
-6.56797
-6.60587
-6.64507
-6.68558
-6.72738
-6.77045
-6.81477
-6.86034
-6.90714
-6.95515
-7.00437
-7.05479
-7.1064
-7.15921
-7.2132
-7.26837
-7.32471
-7.38223
-7.44092
-7.50079
-7.56184
-7.62408
-7.68751
-7.75216
-7.81803
-7.88514
-7.9535
-8.02313
-8.09405
-8.16627
-8.23981
-8.31469
-8.39092
-8.46851
-8.54746
-8.62777
-8.70942
-8.79238
-8.87659
-8.96197
-9.04842
-9.13578
-9.22386
-9.31241
-9.40113
-9.48959
-9.57729
-9.66361
-9.74775
-9.82874
-9.90537
-9.97618
-10.0394
-10.0929
-10.134
-10.1595
-10.1658
-10.1493
-10.1047
-10.0237
-9.89738
-9.71724
-9.47368
-9.15609
-8.75277
-8.25135
-7.63961
-6.90683
-6.04544
-5.05209
-3.93006
-2.69594
-1.36835
0.0278469
1.45965
2.89238
4.29113
5.62741
6.88112
8.04004
9.09848
10.0557
10.9147
11.6805
12.3598
12.96
13.4888
13.9536
14.3618
14.7203
15.035
15.3113
15.554
15.7675
15.9556
16.1216
16.2683
16.3982
16.5135
16.616
16.7073
16.7886
16.8613
16.9263
16.9846
17.0368
17.0836
17.1256
17.1633
17.1971
17.2274
17.2544
17.2786
17.3001
17.3192
17.3361
17.351
17.364
17.3752
17.3848
17.3929
17.3997
17.4052
17.4094
17.4127
17.4149
17.4161
17.4165
17.416
17.4148
17.4128
17.41
17.4065
17.4024
17.3976
17.3922
17.3861
17.3794
17.372
17.3638
17.3546
17.344
17.3309
17.3143
17.2902
17.261
17.1911
-6.00163
-6.00752
-6.01499
-6.02104
-6.02602
-6.03077
-6.0357
-6.04103
-6.04694
-6.05357
-6.06104
-6.06944
-6.07884
-6.0893
-6.10087
-6.11358
-6.12748
-6.14259
-6.15894
-6.17656
-6.19546
-6.21566
-6.23718
-6.26004
-6.28424
-6.30979
-6.33669
-6.36493
-6.39452
-6.42544
-6.45769
-6.49128
-6.52618
-6.56241
-6.59995
-6.6388
-6.67894
-6.72038
-6.76309
-6.80706
-6.85228
-6.89875
-6.94645
-6.99539
-7.04556
-7.09696
-7.14959
-7.20346
-7.25855
-7.31487
-7.37242
-7.43121
-7.49126
-7.55257
-7.61515
-7.67903
-7.74423
-7.81076
-7.87866
-7.94794
-8.01863
-8.09077
-8.16439
-8.23951
-8.31617
-8.3944
-8.47423
-8.55568
-8.63877
-8.72351
-8.80987
-8.89783
-8.98733
-9.07829
-9.1706
-9.26409
-9.35855
-9.4537
-9.54917
-9.6445
-9.73911
-9.83226
-9.92302
-10.0102
-10.0925
-10.1681
-10.2348
-10.29
-10.3306
-10.3529
-10.353
-10.3256
-10.262
-10.1532
-9.99008
-9.7625
-9.45897
-9.06656
-8.57137
-7.95946
-7.21845
-6.33956
-5.31882
-4.15737
-2.86802
-1.47495
-0.00801837
1.49331
2.98665
4.43236
5.79941
7.06781
8.22773
9.27698
10.2184
11.0578
11.8025
12.4605
13.04
13.5493
13.9965
14.3887
14.733
15.0355
15.3014
15.5356
15.7422
15.9248
16.0865
16.23
16.3577
16.4715
16.5732
16.6642
16.7458
16.819
16.8849
16.9442
16.9977
17.0459
17.0894
17.1286
17.1639
17.1957
17.2243
17.25
17.273
17.2936
17.3118
17.328
17.3422
17.3546
17.3653
17.3745
17.3822
17.3886
17.3938
17.3978
17.4008
17.4027
17.4038
17.4039
17.4032
17.4016
17.3993
17.3961
17.3921
17.3874
17.3818
17.3754
17.368
17.3596
17.3499
17.3386
17.3251
17.3083
17.2869
17.2568
17.2208
17.1442
-6.00544
-6.0096
-6.01507
-6.0198
-6.02392
-6.02806
-6.03255
-6.03755
-6.04323
-6.04968
-6.057
-6.06527
-6.07455
-6.08489
-6.09634
-6.10892
-6.12268
-6.13763
-6.15381
-6.17123
-6.18993
-6.20991
-6.2312
-6.25381
-6.27774
-6.303
-6.3296
-6.35753
-6.38679
-6.41737
-6.44927
-6.4825
-6.51704
-6.5529
-6.59007
-6.62856
-6.66834
-6.70941
-6.75177
-6.7954
-6.84029
-6.88645
-6.93387
-6.98256
-7.03251
-7.08374
-7.13623
-7.19001
-7.24506
-7.30139
-7.35903
-7.41797
-7.47824
-7.53985
-7.60283
-7.66721
-7.73302
-7.80027
-7.86902
-7.93929
-8.01113
-8.08457
-8.15966
-8.23645
-8.31498
-8.39531
-8.47749
-8.56155
-8.64754
-8.73548
-8.82536
-8.91719
-9.01093
-9.10652
-9.20389
-9.30289
-9.40334
-9.50498
-9.60749
-9.71042
-9.81325
-9.91527
-10.0156
-10.1131
-10.2064
-10.2937
-10.373
-10.4415
-10.4962
-10.5335
-10.5491
-10.5363
-10.4868
-10.392
-10.2427
-10.0281
-9.73592
-9.352
-8.86107
-8.24734
-7.49611
-6.59596
-5.54104
-4.33272
-2.98161
-1.51328
0.0353432
1.61686
3.1799
4.67731
6.07402
7.35048
8.5009
9.52863
10.4418
11.2502
11.9639
12.5926
13.145
13.6299
14.055
14.428
14.7557
15.0439
15.2979
15.5223
15.7209
15.8971
16.0538
16.1937
16.3188
16.4309
16.5315
16.622
16.7037
16.7774
16.8441
16.9044
16.9591
17.0086
17.0535
17.0942
17.1311
17.1644
17.1946
17.2217
17.2462
17.2681
17.2878
17.3052
17.3207
17.3342
17.3461
17.3563
17.365
17.3723
17.3784
17.3832
17.3869
17.3896
17.3913
17.392
17.3918
17.3907
17.3887
17.3859
17.3821
17.3773
17.3716
17.3648
17.3567
17.3473
17.3362
17.3229
17.3067
17.2865
17.2607
17.2254
17.1834
17.1015
-6.00857
-6.0109
-6.01419
-6.01745
-6.02068
-6.0242
-6.02821
-6.03285
-6.03821
-6.04439
-6.05145
-6.05946
-6.06847
-6.07853
-6.08969
-6.10197
-6.1154
-6.13003
-6.14587
-6.16295
-6.18129
-6.20092
-6.22184
-6.24408
-6.26763
-6.29251
-6.31871
-6.34624
-6.3751
-6.40527
-6.43678
-6.4696
-6.50374
-6.53921
-6.57599
-6.61409
-6.65349
-6.6942
-6.73619
-6.77947
-6.82404
-6.8699
-6.91705
-6.9655
-7.01525
-7.06631
-7.11869
-7.17238
-7.2274
-7.28377
-7.34149
-7.4006
-7.46111
-7.52305
-7.58645
-7.65135
-7.71778
-7.78579
-7.85541
-7.9267
-7.99971
-8.07448
-8.15108
-8.22958
-8.31003
-8.39252
-8.4771
-8.56384
-8.65278
-8.74398
-8.83745
-8.93321
-9.03125
-9.13156
-9.23405
-9.33862
-9.44511
-9.55328
-9.66281
-9.77333
-9.8843
-9.99505
-10.1047
-10.2122
-10.316
-10.4146
-10.5057
-10.5866
-10.6545
-10.7063
-10.7361
-10.7355
-10.6967
-10.6128
-10.4745
-10.2702
-9.98687
-9.60933
-9.12105
-8.5046
-7.74306
-6.82229
-5.73367
-4.47672
-3.062
-1.51509
0.123133
1.79774
3.44602
5.00842
6.44125
7.72388
8.8562
9.85022
10.7222
11.4877
12.1604
12.7513
13.2701
13.7253
14.1248
14.4757
14.7844
15.0568
15.2976
15.5111
15.701
15.8704
16.022
16.1579
16.2802
16.3903
16.4899
16.5799
16.6616
16.7358
16.8033
16.8646
16.9205
16.9714
17.0177
17.0599
17.0983
17.1332
17.1648
17.1935
17.2195
17.2428
17.2638
17.2826
17.2993
17.314
17.327
17.3382
17.3479
17.3562
17.3631
17.3687
17.3732
17.3766
17.3789
17.3803
17.3806
17.38
17.3784
17.3758
17.3721
17.3674
17.3615
17.3543
17.3457
17.3353
17.3228
17.3076
17.2889
17.2655
17.2359
17.196
17.1489
17.0626
-6.01012
-6.01069
-6.01183
-6.01361
-6.01594
-6.01882
-6.02233
-6.02652
-6.03148
-6.03727
-6.04393
-6.05154
-6.06014
-6.06977
-6.08048
-6.0923
-6.10528
-6.11943
-6.1348
-6.15141
-6.16928
-6.18843
-6.20887
-6.23063
-6.2537
-6.2781
-6.30383
-6.33089
-6.35928
-6.389
-6.42006
-6.45244
-6.48615
-6.52118
-6.55755
-6.59523
-6.63423
-6.67454
-6.71616
-6.75909
-6.80332
-6.84888
-6.89575
-6.94396
-6.99351
-7.0444
-7.09664
-7.15024
-7.20522
-7.2616
-7.31941
-7.37866
-7.4394
-7.50165
-7.56545
-7.63085
-7.6979
-7.76663
-7.83712
-7.9094
-7.98355
-8.05964
-8.13774
-8.21794
-8.30031
-8.38495
-8.47194
-8.56134
-8.65324
-8.7477
-8.84476
-8.94447
-9.04685
-9.15189
-9.25953
-9.3697
-9.48223
-9.59692
-9.71348
-9.83153
-9.95055
-10.0699
-10.1886
-10.3057
-10.4198
-10.5289
-10.631
-10.7234
-10.804
-10.8691
-10.9105
-10.9185
-10.8872
-10.8108
-10.6795
-10.4814
-10.2024
-9.82688
-9.33734
-8.71539
-7.943
-7.00447
-5.88904
-4.5938
-3.12691
-1.51146
0.212042
1.98486
3.73382
5.38248
6.86997
8.16778
9.28064
10.2326
11.0521
11.7635
12.3852
12.9305
13.4096
13.8306
14.201
14.5273
14.8153
15.0705
15.2973
15.4995
15.6804
15.8428
15.989
16.121
16.2405
16.3488
16.4474
16.5371
16.6188
16.6935
16.7618
16.8242
16.8814
16.9337
16.9815
17.0253
17.0652
17.1017
17.135
17.1652
17.1926
17.2175
17.2398
17.2599
17.2779
17.2938
17.3079
17.3202
17.3309
17.3401
17.3479
17.3544
17.3596
17.3637
17.3667
17.3686
17.3695
17.3693
17.3681
17.3658
17.3623
17.3577
17.3517
17.3441
17.3349
17.3236
17.3098
17.2928
17.2719
17.2456
17.2125
17.1687
17.1171
17.0275
-6.00951
-6.00858
-6.00785
-6.00824
-6.00963
-6.0118
-6.0147
-6.01835
-6.02278
-6.02804
-6.03418
-6.04125
-6.0493
-6.05837
-6.06852
-6.07977
-6.09217
-6.10576
-6.12056
-6.1366
-6.1539
-6.17249
-6.19238
-6.21359
-6.23612
-6.25999
-6.2852
-6.31174
-6.33963
-6.36886
-6.39943
-6.43134
-6.46459
-6.49918
-6.5351
-6.57235
-6.61093
-6.65084
-6.69207
-6.73462
-6.77852
-6.82375
-6.87034
-6.91828
-6.96759
-7.01828
-7.07035
-7.12382
-7.17872
-7.23506
-7.29289
-7.35224
-7.41313
-7.47562
-7.53975
-7.60557
-7.67313
-7.7425
-7.81374
-7.88692
-7.96212
-8.03943
-8.11893
-8.20072
-8.28491
-8.37158
-8.46085
-8.55281
-8.64754
-8.74514
-8.84568
-8.94922
-9.0558
-9.16543
-9.27807
-9.39365
-9.51204
-9.63303
-9.75636
-9.88162
-10.0083
-10.1357
-10.263
-10.389
-10.5123
-10.6309
-10.7427
-10.8458
-10.9379
-11.0132
-11.0607
-11.0723
-11.0448
-10.9717
-10.8426
-10.645
-10.3645
-9.98479
-9.48802
-8.85558
-8.06936
-7.11365
-5.97732
-4.6564
-3.15681
-1.49742
0.286703
2.14077
3.98873
5.73948
7.30749
8.64298
9.74713
10.6567
11.4171
12.0658
12.6287
13.1219
13.5561
13.9392
14.2777
14.5776
14.8439
15.0813
15.2937
15.4845
15.6565
15.8121
15.9532
16.0815
16.1984
16.3053
16.403
16.4925
16.5746
16.65
16.7193
16.7829
16.8415
16.8953
16.9447
16.9901
17.0317
17.0699
17.1048
17.1366
17.1656
17.1919
17.2157
17.2372
17.2564
17.2736
17.2888
17.3022
17.3139
17.324
17.3327
17.34
17.346
17.3508
17.3545
17.357
17.3584
17.3588
17.358
17.356
17.3527
17.3481
17.342