/*--------------------------------*- C++ -*----------------------------------*\
| =========                 |                                                 |
| \\      /  F ield         | OpenFOAM: The Open Source CFD Toolbox           |
|  \\    /   O peration     | Version:  1.4.2                                 |
|   \\  /    A nd           | Web:      http://www.openfoam.org               |
|    \\/     M anipulation  |                                                 |
\*---------------------------------------------------------------------------*/
FoamFile
{
    version     2.0;
    format      ascii;
    class       surfaceScalarField;
    object      phi;
    location    "450";
}
// * * * * * * * * * * * * * * * * * * * * * * * * * * * * * * * * * * * * * //

dimensions      [0 3 -1 0 0 0 0];

internalField   nonuniform List<scalar> 
24170
(
3.03917e-06
9.47196e-08
2.96656e-06
7.26122e-08
2.90191e-06
6.46499e-08
2.84064e-06
6.12702e-08
2.78282e-06
5.78149e-08
2.7287e-06
5.41285e-08
2.67818e-06
5.052e-08
2.63111e-06
4.70675e-08
2.58735e-06
4.37639e-08
2.54674e-06
4.06021e-08
2.50916e-06
3.75779e-08
2.47448e-06
3.46818e-08
2.44258e-06
3.18939e-08
2.41341e-06
2.9175e-08
2.38696e-06
2.6449e-08
2.36342e-06
2.35406e-08
2.34332e-06
2.01039e-08
1.00727e-08
2.33324e-06
3.46198e-06
8.91809e-08
3.45383e-06
8.0763e-08
3.44435e-06
7.4127e-08
3.43369e-06
7.19406e-08
3.42208e-06
6.94203e-08
3.40994e-06
6.62719e-08
3.39748e-06
6.29766e-08
3.38485e-06
5.96947e-08
3.37217e-06
5.64397e-08
3.35956e-06
5.32157e-08
3.34711e-06
5.00254e-08
3.33493e-06
4.68584e-08
3.32314e-06
4.36828e-08
3.31189e-06
4.04287e-08
3.30139e-06
3.69517e-08
3.292e-06
3.2931e-08
3.28456e-06
2.75451e-08
1.81566e-08
3.27647e-06
3.82432e-06
7.70575e-08
3.82627e-06
7.88097e-08
3.82554e-06
7.48585e-08
3.82394e-06
7.35356e-08
3.82171e-06
7.16524e-08
3.81902e-06
6.8968e-08
3.81601e-06
6.59881e-08
3.81278e-06
6.29248e-08
3.80939e-06
5.98213e-08
3.80591e-06
5.66935e-08
3.80239e-06
5.35473e-08
3.79888e-06
5.03681e-08
3.79545e-06
4.71129e-08
3.79218e-06
4.36938e-08
3.78919e-06
3.99429e-08
3.78658e-06
3.55425e-08
3.78422e-06
2.99083e-08
2.20042e-08
3.78037e-06
4.21689e-06
6.47305e-08
4.22208e-06
7.36105e-08
4.22423e-06
7.27152e-08
4.22544e-06
7.23258e-08
4.22609e-06
7.0999e-08
4.22633e-06
6.87352e-08
4.22627e-06
6.60414e-08
4.22603e-06
6.31643e-08
4.22567e-06
6.01804e-08
4.22524e-06
5.71224e-08
4.22478e-06
5.40026e-08
4.22435e-06
5.08077e-08
4.22397e-06
4.74932e-08
4.22369e-06
4.39716e-08
4.22354e-06
4.00912e-08
4.22347e-06
3.56089e-08
4.22318e-06
3.02038e-08
2.35967e-08
4.22158e-06
4.64868e-06
5.33542e-08
4.6554e-06
6.68887e-08
4.65923e-06
6.88841e-08
4.66198e-06
6.95789e-08
4.66412e-06
6.88652e-08
4.66581e-06
6.70424e-08
4.6672e-06
6.46539e-08
4.66838e-06
6.19804e-08
4.66943e-06
5.91314e-08
4.67039e-06
5.61579e-08
4.67131e-06
5.30816e-08
4.67223e-06
4.98952e-08
4.67316e-06
4.65607e-08
4.67413e-06
4.30043e-08
4.67511e-06
3.91103e-08
4.67599e-06
3.4724e-08
4.67648e-06
2.97162e-08
2.41454e-08
4.67593e-06
5.12454e-06
4.34082e-08
5.13195e-06
5.94751e-08
5.13699e-06
6.38516e-08
5.14093e-06
6.56341e-08
5.14418e-06
6.56175e-08
5.14692e-06
6.43042e-08
5.1493e-06
6.22724e-08
5.15144e-06
5.98421e-08
5.15341e-06
5.71609e-08
5.15526e-06
5.43035e-08
5.15704e-06
5.13047e-08
5.15877e-06
4.81674e-08
5.16046e-06
4.48661e-08
5.16212e-06
4.13489e-08
5.16369e-06
3.75419e-08
5.16504e-06
3.33677e-08
5.16594e-06
2.8815e-08
2.40653e-08
5.16602e-06
5.64937e-06
3.5044e-08
5.65692e-06
5.19247e-08
5.66274e-06
5.803e-08
5.66762e-06
6.07537e-08
5.67182e-06
6.14223e-08
5.67547e-06
6.06514e-08
5.67872e-06
5.90259e-08
5.68167e-06
5.68926e-08
5.6844e-06
5.44294e-08
5.68697e-06
5.1734e-08
5.68942e-06
4.88579e-08
5.69177e-06
4.58188e-08
5.69402e-06
4.26093e-08
5.69617e-06
3.92032e-08
5.69815e-06
3.5567e-08
5.69983e-06
3.16818e-08
5.70105e-06
2.75983e-08
2.35184e-08
5.70159e-06
4.41119e-06
2.9963e-08
4.41647e-06
4.66432e-08
4.42096e-06
5.35478e-08
4.42486e-06
5.68515e-08
4.42832e-06
5.79575e-08
4.43142e-06
5.75541e-08
4.43422e-06
5.62252e-08
4.43679e-06
5.43232e-08
4.43918e-06
5.20412e-08
4.44142e-06
4.94901e-08
4.44355e-06
4.67326e-08
4.44557e-06
4.37978e-08
4.44749e-06
4.06915e-08
4.44929e-06
3.74065e-08
4.45092e-06
3.39346e-08
4.45231e-06
3.02876e-08
4.45337e-06
2.65388e-08
2.2875e-08
4.45401e-06
5.14458e-06
2.52363e-08
5.15004e-06
4.11904e-08
5.15499e-06
4.85917e-08
5.1595e-06
5.23466e-08
5.1636e-06
5.38502e-08
5.16735e-06
5.38082e-08
5.17079e-06
5.27871e-08
5.17397e-06
5.11391e-08
5.17695e-06
4.90668e-08
5.17975e-06
4.66925e-08
5.18239e-06
4.40893e-08
5.18489e-06
4.12979e-08
5.18725e-06
3.83384e-08
5.18943e-06
3.52217e-08
5.1914e-06
3.19619e-08
5.1931e-06
2.85936e-08
5.19444e-06
2.5199e-08
2.19435e-08
5.19537e-06
6.00009e-06
2.09411e-08
6.00558e-06
3.56997e-08
6.0109e-06
4.32713e-08
6.01594e-06
4.73046e-08
6.02067e-06
4.9125e-08
6.02506e-06
4.94098e-08
6.02916e-06
4.8688e-08
6.033e-06
4.73026e-08
6.03661e-06
4.54606e-08
6.04001e-06
4.32915e-08
6.04322e-06
4.08775e-08
6.04625e-06
3.82703e-08
6.04909e-06
3.55035e-08
6.05171e-06
3.26039e-08
6.05407e-06
2.96029e-08
6.05611e-06
2.65488e-08
6.05779e-06
2.35227e-08
2.0664e-08
6.05907e-06
6.99809e-06
1.71142e-08
7.00349e-06
3.02988e-08
7.00907e-06
3.7699e-08
7.01455e-06
4.1818e-08
7.01984e-06
4.38408e-08
7.02486e-06
4.43888e-08
7.02961e-06
4.39365e-08
7.03411e-06
4.2807e-08
7.03836e-06
4.12048e-08
7.04239e-06
3.92626e-08
7.0462e-06
3.70691e-08
7.04979e-06
3.46849e-08
7.05314e-06
3.21549e-08
7.05623e-06
2.95181e-08
7.05901e-06
2.6817e-08
7.06146e-06
2.41052e-08
7.06352e-06
2.14559e-08
1.89813e-08
7.06521e-06
8.16239e-06
1.37422e-08
8.16759e-06
2.50914e-08
8.17331e-06
3.19859e-08
8.17914e-06
3.59871e-08
8.1849e-06
3.80764e-08
8.19049e-06
3.8801e-08
8.19586e-06
3.85696e-08
8.20099e-06
3.76747e-08
8.20589e-06
3.63108e-08
8.21054e-06
3.46092e-08
8.21495e-06
3.26613e-08
8.2191e-06
3.05337e-08
8.22298e-06
2.82787e-08
8.22656e-06
2.59428e-08
8.2298e-06
2.35732e-08
8.23268e-06
2.12224e-08
8.23519e-06
1.89518e-08
1.68482e-08
8.23732e-06
9.5207e-06
1.07708e-08
9.52565e-06
2.01396e-08
9.53141e-06
2.62258e-08
9.5375e-06
2.99024e-08
9.54366e-06
3.19119e-08
9.54975e-06
3.27112e-08
9.55568e-06
3.26385e-08
9.56141e-06
3.19458e-08
9.56691e-06
3.08099e-08
9.57217e-06
2.93551e-08
9.57716e-06
2.76712e-08
9.58187e-06
2.58264e-08
9.58627e-06
2.3876e-08
9.59035e-06
2.18688e-08
9.59407e-06
1.9851e-08
9.59742e-06
1.78698e-08
9.6004e-06
1.59737e-08
1.42279e-08
9.60302e-06
1.11054e-05
8.1213e-09
1.111e-05
1.54534e-08
1.11158e-05
2.0479e-08
1.11221e-05
2.36285e-08
1.11286e-05
2.54085e-08
1.11351e-05
2.61735e-08
1.11416e-05
2.61886e-08
1.11478e-05
2.56585e-08
1.11539e-05
2.47344e-08
1.11597e-05
2.3527e-08
1.11653e-05
2.21193e-08
1.11706e-05
2.05763e-08
1.11755e-05
1.89511e-08
1.11801e-05
1.72898e-08
1.11843e-05
1.5634e-08
1.11881e-05
1.40226e-08
1.11916e-05
1.24927e-08
1.10914e-08
1.11947e-05
1.2954e-05
5.70222e-09
1.29585e-05
1.09868e-08
1.29642e-05
1.47551e-08
1.29707e-05
1.71878e-08
1.29775e-05
1.8591e-08
1.29845e-05
1.92112e-08
1.29914e-05
1.92394e-08
1.29982e-05
1.88281e-08
1.30049e-05
1.80955e-08
1.30113e-05
1.71319e-08
1.30174e-05
1.60076e-08
1.30232e-05
1.47787e-08
1.30286e-05
1.34915e-08
1.30337e-05
1.21853e-08
1.30385e-05
1.08945e-08
1.30429e-05
9.64894e-09
1.30469e-05
8.47547e-09
7.40782e-09
1.30506e-05
1.51107e-05
3.41085e-09
1.51151e-05
6.6322e-09
1.51209e-05
8.98821e-09
1.51275e-05
1.05347e-08
1.51347e-05
1.14229e-08
1.51421e-05
1.17933e-08
1.51496e-05
1.17618e-08
1.5157e-05
1.1425e-08
1.51642e-05
1.08618e-08
1.51712e-05
1.01356e-08
1.51779e-05
9.29783e-09
1.51843e-05
8.39052e-09
1.51904e-05
7.44892e-09
1.5196e-05
6.50272e-09
1.52014e-05
5.57697e-09
1.52063e-05
4.69286e-09
1.52109e-05
3.8686e-09
3.12791e-09
1.52152e-05
1.76267e-05
1.11851e-09
1.76312e-05
2.19525e-09
1.76372e-05
2.99354e-09
1.76442e-05
3.5057e-09
1.76519e-05
3.75945e-09
1.76599e-05
3.79168e-09
1.7668e-05
3.64046e-09
1.76761e-05
3.34257e-09
1.7684e-05
2.93204e-09
1.76917e-05
2.43945e-09
1.76991e-05
1.89191e-09
1.77062e-05
1.31327e-09
1.77129e-05
7.24352e-10
1.77193e-05
1.43111e-10
1.77253e-05
-4.15306e-10
1.77309e-05
-9.38267e-10
1.77362e-05
-1.41475e-09
-1.82873e-09
1.77411e-05
1.78284e-05
-1.07004e-09
1.78326e-05
-2.05883e-09
1.78384e-05
-2.77217e-09
1.78452e-05
-3.27078e-09
1.78526e-05
-3.64157e-09
1.78603e-05
-3.94675e-09
1.78682e-05
-4.22316e-09
1.7876e-05
-4.49196e-09
1.78837e-05
-4.76333e-09
1.78912e-05
-5.03962e-09
1.78984e-05
-5.31816e-09
1.79053e-05
-5.59354e-09
1.79119e-05
-5.85913e-09
1.79181e-05
-6.10807e-09
1.79241e-05
-6.33399e-09
1.79296e-05
-6.53119e-09
1.79349e-05
-6.69405e-09
-6.81213e-09
1.79399e-05
1.58834e-05
-3.14003e-09
1.58874e-05
-6.02411e-09
1.58927e-05
-8.06046e-09
1.58988e-05
-9.403e-09
1.59054e-05
-1.02733e-08
1.59123e-05
-1.08307e-08
1.59193e-05
-1.11806e-08
1.59262e-05
-1.13961e-08
1.59329e-05
-1.15262e-08
1.59395e-05
-1.16012e-08
1.59458e-05
-1.16389e-08
1.59519e-05
-1.16489e-08
1.59576e-05
-1.16361e-08
1.59631e-05
-1.16021e-08
1.59683e-05
-1.15473e-08
1.59733e-05
-1.14709e-08
1.5978e-05
-1.13711e-08
-1.12413e-08
1.59824e-05
1.41508e-05
-5.2966e-09
1.41548e-05
-1.00291e-08
1.416e-05
-1.32216e-08
1.41658e-05
-1.52293e-08
1.4172e-05
-1.64558e-08
1.41783e-05
-1.71588e-08
1.41846e-05
-1.75079e-08
1.41909e-05
-1.7624e-08
1.41969e-05
-1.75895e-08
1.42028e-05
-1.74577e-08
1.42084e-05
-1.72623e-08
1.42138e-05
-1.70243e-08
1.42189e-05
-1.67571e-08
1.42238e-05
-1.64688e-08
1.42284e-05
-1.61644e-08
1.42328e-05
-1.5847e-08
1.42369e-05
-1.55171e-08
-1.51714e-08
1.42408e-05
1.26075e-05
-7.72939e-09
1.26118e-05
-1.43213e-08
1.2617e-05
-1.84713e-08
1.26227e-05
-2.09379e-08
1.26286e-05
-2.23604e-08
1.26345e-05
-2.30876e-08
1.26404e-05
-2.33478e-08
1.26461e-05
-2.33059e-08
1.26515e-05
-2.3072e-08
1.26568e-05
-2.27163e-08
1.26618e-05
-2.22837e-08
1.26666e-05
-2.18032e-08
1.26711e-05
-2.12937e-08
1.26754e-05
-2.07676e-08
1.26795e-05
-2.02329e-08
1.26833e-05
-1.96953e-08
1.2687e-05
-1.91574e-08
-1.86185e-08
1.26904e-05
1.12327e-05
-1.06567e-08
1.12375e-05
-1.91017e-08
1.1243e-05
-2.39246e-08
1.12486e-05
-2.66045e-08
1.12543e-05
-2.80452e-08
1.12599e-05
-2.86623e-08
1.12653e-05
-2.87368e-08
1.12704e-05
-2.84724e-08
1.12754e-05
-2.79995e-08
1.12801e-05
-2.73984e-08
1.12845e-05
-2.67204e-08
1.12887e-05
-2.59988e-08
1.12926e-05
-2.52549e-08
1.12964e-05
-2.4503e-08
1.12999e-05
-2.37527e-08
1.13032e-05
-2.3011e-08
1.13063e-05
-2.22824e-08
-2.15688e-08
1.13093e-05
1.00083e-05
-1.43497e-08
1.00137e-05
-2.45164e-08
1.00194e-05
-2.9591e-08
1.0025e-05
-3.21952e-08
1.00304e-05
-3.34602e-08
1.00356e-05
-3.38249e-08
1.00404e-05
-3.36167e-08
1.0045e-05
-3.30691e-08
1.00494e-05
-3.23223e-08
1.00534e-05
-3.14596e-08
1.00572e-05
-3.05331e-08
1.00608e-05
-2.9576e-08
1.00642e-05
-2.86093e-08
1.00673e-05
-2.76466e-08
1.00702e-05
-2.66971e-08
1.0073e-05
-2.57682e-08
1.00756e-05
-2.48659e-08
-2.39958e-08
1.0078e-05
8.91788e-06
-1.91332e-08
8.92398e-06
-3.06123e-08
8.92973e-06
-3.53473e-08
8.93509e-06
-3.75545e-08
8.94008e-06
-3.84461e-08
8.94468e-06
-3.84255e-08
8.94892e-06
-3.78542e-08
8.95283e-06
-3.69812e-08
8.95645e-06
-3.59434e-08
8.95981e-06
-3.48186e-08
8.96294e-06
-3.36542e-08
8.96584e-06
-3.24794e-08
8.96854e-06
-3.13116e-08
8.97105e-06
-3.01615e-08
8.97339e-06
-2.9036e-08
8.97556e-06
-2.79412e-08
8.97758e-06
-2.68844e-08
-2.58759e-08
8.97946e-06
7.94688e-06
-2.53477e-08
7.95354e-06
-3.7267e-08
7.9591e-06
-4.09062e-08
7.96394e-06
-4.24002e-08
7.96824e-06
-4.27507e-08
7.97207e-06
-4.22502e-08
7.97549e-06
-4.12744e-08
7.97858e-06
-4.00686e-08
7.98139e-06
-3.87529e-08
7.98397e-06
-3.73902e-08
7.98633e-06
-3.60181e-08
7.98851e-06
-3.46585e-08
7.99052e-06
-3.33234e-08
7.99237e-06
-3.20185e-08
7.99409e-06
-3.07468e-08
7.99566e-06
-2.95112e-08
7.99709e-06
-2.83185e-08
-2.71844e-08
7.9984e-06
7.08225e-06
-3.32622e-08
7.08907e-06
-4.40948e-08
7.09396e-06
-4.57982e-08
7.0979e-06
-4.63406e-08
7.10122e-06
-4.60645e-08
7.10403e-06
-4.50631e-08
7.10646e-06
-4.36996e-08
7.10859e-06
-4.21965e-08
7.11048e-06
-4.06447e-08
7.11218e-06
-3.90868e-08
7.11371e-06
-3.75478e-08
7.11509e-06
-3.60421e-08
7.11634e-06
-3.45762e-08
7.11748e-06
-3.3151e-08
7.11849e-06
-3.17644e-08
7.1194e-06
-3.04131e-08
7.12018e-06
-2.9099e-08
-2.78365e-08
7.12083e-06
6.31219e-06
-4.29406e-08
6.31837e-06
-5.0275e-08
6.32193e-06
-4.93596e-08
6.3245e-06
-4.89115e-08
6.32647e-06
-4.8039e-08
6.32799e-06
-4.65812e-08
6.32918e-06
-4.48805e-08
6.33011e-06
-4.31283e-08
6.33085e-06
-4.13846e-08
6.33144e-06
-3.96728e-08
6.3319e-06
-3.80073e-08
6.33225e-06
-3.63953e-08
6.33252e-06
-3.48381e-08
6.3327e-06
-3.33319e-08
6.3328e-06
-3.18687e-08
6.33282e-06
-3.04354e-08
6.33275e-06
-2.90194e-08
-2.76095e-08
6.33252e-06
5.62587e-06
-5.39125e-08
5.62973e-06
-5.4131e-08
5.63093e-06
-5.05579e-08
5.6313e-06
-4.92895e-08
5.63111e-06
-4.78513e-08
5.63051e-06
-4.59765e-08
5.62963e-06
-4.3995e-08
5.62855e-06
-4.20523e-08
5.62734e-06
-4.01739e-08
5.62604e-06
-3.83641e-08
5.62466e-06
-3.66266e-08
5.62323e-06
-3.4962e-08
5.62176e-06
-3.33667e-08
5.62026e-06
-3.18335e-08
5.61874e-06
-3.03497e-08
5.61719e-06
-2.88907e-08
5.61559e-06
-2.74163e-08
-2.58046e-08
5.61379e-06
5.01054e-06
-6.21499e-08
5.007e-06
-5.05896e-08
5.00199e-06
-4.55496e-08
4.99629e-06
-4.35826e-08
4.99005e-06
-4.16212e-08
4.98356e-06
-3.94858e-08
4.97697e-06
-3.73989e-08
4.97035e-06
-3.54291e-08
4.96375e-06
-3.35712e-08
4.9572e-06
-3.18147e-08
4.95073e-06
-3.01537e-08
4.94436e-06
-2.85825e-08
4.93808e-06
-2.70944e-08
4.93193e-06
-2.56813e-08
4.92591e-06
-2.43315e-08
4.92004e-06
-2.30197e-08
4.91432e-06
-2.16877e-08
-1.98945e-08
4.90841e-06
4.3944e-06
4.34381e-06
4.29826e-06
4.25467e-06
4.21305e-06
4.17357e-06
4.13617e-06
4.10075e-06
4.06718e-06
4.03536e-06
4.00521e-06
3.97663e-06
3.94953e-06
3.92385e-06
3.89952e-06
3.8765e-06
3.85482e-06
3.83492e-06
1.99759e-08
-1.99759e-08
4.28795e-08
-2.28954e-08
6.2977e-08
-2.00939e-08
7.79922e-08
-1.50151e-08
8.703e-08
-9.0368e-09
8.96659e-08
-2.63646e-09
8.57591e-08
3.91052e-09
7.5442e-08
1.03235e-08
5.91212e-08
1.63311e-08
3.71381e-08
2.19975e-08
9.86423e-09
2.72909e-08
-2.21909e-08
3.20736e-08
-5.81895e-08
3.60141e-08
-9.73196e-08
3.91391e-08
-1.38952e-07
4.16348e-08
-1.82583e-07
4.36259e-08
-2.27784e-07
4.51916e-08
-2.74193e-07
4.63951e-08
-3.21502e-07
4.7294e-08
-3.69459e-07
4.7945e-08
-4.17878e-07
4.8409e-08
-4.66645e-07
4.87632e-08
-5.15778e-07
4.91343e-08
-5.65199e-07
4.94286e-08
-6.1476e-07
4.9573e-08
-6.64394e-07
4.96502e-08
-7.14061e-07
4.96848e-08
-7.63729e-07
4.96858e-08
-8.13373e-07
4.96594e-08
-8.62972e-07
4.96112e-08
-9.12509e-07
4.95466e-08
-9.61975e-07
4.94707e-08
-1.01136e-06
4.93882e-08
-1.06067e-06
4.93031e-08
-1.10989e-06
4.92191e-08
-1.15904e-06
4.91395e-08
-1.20811e-06
4.90665e-08
-1.25712e-06
4.90023e-08
-1.30607e-06
4.89481e-08
-1.35498e-06
4.89048e-08
-1.40385e-06
4.88729e-08
-1.4527e-06
4.88524e-08
-1.50154e-06
4.88435e-08
-1.55038e-06
4.88461e-08
-1.59923e-06
4.88606e-08
-1.64811e-06
4.88875e-08
-1.69704e-06
4.89277e-08
-1.74602e-06
4.89821e-08
-1.79507e-06
4.90519e-08
-1.84421e-06
4.91385e-08
-1.89346e-06
4.9243e-08
-1.94284e-06
4.93664e-08
-1.99236e-06
4.95095e-08
-2.04204e-06
4.96728e-08
-2.0919e-06
4.98566e-08
-2.14196e-06
5.00608e-08
-2.19225e-06
5.02853e-08
-2.24278e-06
5.05299e-08
-2.29356e-06
5.07943e-08
-2.34463e-06
5.10783e-08
-2.39601e-06
5.13816e-08
-2.4477e-06
5.17042e-08
-2.49974e-06
5.20461e-08
-2.55215e-06
5.2407e-08
-2.60494e-06
5.27865e-08
-2.65812e-06
5.31831e-08
-2.71173e-06
5.35949e-08
-2.76575e-06
5.40186e-08
-2.82022e-06
5.44501e-08
-2.87511e-06
5.48839e-08
-2.93044e-06
5.53133e-08
-2.98618e-06
5.57297e-08
-3.04231e-06
5.61227e-08
-3.09879e-06
5.64797e-08
-3.15558e-06
5.67861e-08
-3.21261e-06
5.70241e-08
-3.26978e-06
5.71729e-08
-3.32699e-06
5.72081e-08
-3.3841e-06
5.71012e-08
-3.44092e-06
5.68188e-08
-3.49725e-06
5.63223e-08
-3.55282e-06
5.5567e-08
-3.60733e-06
5.45011e-08
-3.66039e-06
5.30648e-08
-3.71158e-06
5.119e-08
-3.76038e-06
4.88019e-08
-3.80619e-06
4.58182e-08
-3.84833e-06
4.21481e-08
-3.88602e-06
3.7688e-08
-3.91834e-06
3.23217e-08
-3.94427e-06
2.59292e-08
-3.96267e-06
1.8404e-08
-3.97232e-06
9.63877e-09
-3.97188e-06
-4.4707e-10
-3.96007e-06
-1.18131e-08
-3.93566e-06
-2.44243e-08
-3.89737e-06
-3.8295e-08
-3.84403e-06
-5.33566e-08
-3.77456e-06
-6.94715e-08
-3.68813e-06
-8.64319e-08
-3.58417e-06
-1.03963e-07
-3.46244e-06
-1.21729e-07
-3.32309e-06
-1.39349e-07
-3.16667e-06
-1.56411e-07
-2.99416e-06
-1.72499e-07
-2.80693e-06
-1.87217e-07
-2.60672e-06
-2.00209e-07
-2.39553e-06
-2.11183e-07
-2.17561e-06
-2.19919e-07
-1.94932e-06
-2.26286e-07
-1.71908e-06
-2.30234e-07
-1.48728e-06
-2.31802e-07
-1.25617e-06
-2.31105e-07
-1.02784e-06
-2.28336e-07
-8.04088e-07
-2.23753e-07
-5.86473e-07
-2.17613e-07
-3.76279e-07
-2.10191e-07
-1.7312e-07
-2.03157e-07
2.28136e-08
-1.95927e-07
2.09502e-07
-1.86671e-07
3.85972e-07
-1.76458e-07
5.51977e-07
-1.6599e-07
7.07691e-07
-1.55695e-07
8.53443e-07
-1.45733e-07
9.89669e-07
-1.36209e-07
1.11686e-06
-1.27183e-07
1.23553e-06
-1.18681e-07
1.34623e-06
-1.10713e-07
1.44949e-06
-1.03274e-07
1.54584e-06
-9.6352e-08
1.63577e-06
-8.99294e-08
1.71976e-06
-8.39837e-08
1.79827e-06
-7.84889e-08
1.8717e-06
-7.34176e-08
1.94046e-06
-6.87401e-08
2.00489e-06
-6.44252e-08
2.06534e-06
-6.04428e-08
2.1221e-06
-5.67633e-08
2.17545e-06
-5.33577e-08
2.22564e-06
-5.02009e-08
2.27291e-06
-4.72725e-08
2.31746e-06
-4.45524e-08
2.35947e-06
-4.20203e-08
2.39913e-06
-3.9658e-08
2.43657e-06
-3.74507e-08
2.47195e-06
-3.53839e-08
2.50539e-06
-3.34431e-08
2.53701e-06
-3.1616e-08
2.5669e-06
-2.98926e-08
2.59516e-06
-2.82638e-08
2.62188e-06
-2.67205e-08
2.64714e-06
-2.52549e-08
2.67101e-06
-2.38611e-08
2.69355e-06
-2.25339e-08
2.71482e-06
-2.12674e-08
2.73488e-06
-2.00559e-08
2.75378e-06
-1.8896e-08
2.77157e-06
-1.77863e-08
2.78829e-06
-1.67241e-08
2.80399e-06
-1.57045e-08
2.81871e-06
-1.47238e-08
2.83249e-06
-1.37791e-08
2.84535e-06
-1.28618e-08
2.85731e-06
-1.19619e-08
2.86839e-06
-1.10735e-08
2.87857e-06
-1.01854e-08
2.88786e-06
-9.28286e-09
2.89621e-06
-8.35334e-09
2.90357e-06
-7.36682e-09
2.90985e-06
-6.28052e-09
2.9149e-06
-5.04489e-09
2.91848e-06
-3.57733e-09
2.92026e-06
-1.77296e-09
2.91974e-06
5.26627e-10
2.91605e-06
3.70172e-09
2.90756e-06
8.48317e-09
2.89132e-06
1.62444e-08
2.8607e-06
3.0619e-08
2.79954e-06
6.11553e-08
1.48964e-07
2.65058e-06
1.72857e-08
-3.73171e-08
2.84773e-08
-3.41263e-08
3.33683e-08
-2.50036e-08
3.24125e-08
-1.40716e-08
2.56256e-08
-2.25621e-09
1.32727e-08
9.71179e-09
-4.08727e-09
2.1267e-08
-2.58458e-08
3.20778e-08
-5.14325e-08
4.19112e-08
-8.02822e-08
5.0838e-08
-1.11868e-07
5.88648e-08
-1.45728e-07
6.59202e-08
-1.81671e-07
7.19452e-08
-2.19546e-07
7.70042e-08
-2.59125e-07
8.1208e-08
-3.00167e-07
8.46657e-08
-3.4245e-07
8.74777e-08
-3.85782e-07
8.97354e-08
-4.3e-07
9.15235e-08
-4.74961e-07
9.29209e-08
-5.20538e-07
9.40012e-08
-5.66597e-07
9.48353e-08
-6.12941e-07
9.54891e-08
-6.59497e-07
9.59908e-08
-7.06267e-07
9.63435e-08
-7.53197e-07
9.65745e-08
-8.00234e-07
9.67107e-08
-8.47334e-07
9.67724e-08
-8.94465e-07
9.67761e-08
-9.41603e-07
9.67357e-08
-9.88728e-07
9.66626e-08
-1.03583e-06
9.65665e-08
-1.08289e-06
9.64557e-08
-1.12992e-06
9.63369e-08
-1.17691e-06
9.62157e-08
-1.22385e-06
9.60969e-08
-1.27075e-06
9.59846e-08
-1.31762e-06
9.58823e-08
-1.36446e-06
9.5793e-08
-1.41128e-06
9.57195e-08
-1.45808e-06
9.5664e-08
-1.50487e-06
9.56286e-08
-1.55165e-06
9.56149e-08
-1.59845e-06
9.56243e-08
-1.64526e-06
9.56578e-08
-1.6921e-06
9.57161e-08
-1.73897e-06
9.57998e-08
-1.7859e-06
9.59097e-08
-1.83289e-06
9.60463e-08
-1.87995e-06
9.62101e-08
-1.9271e-06
9.64018e-08
-1.97435e-06
9.66219e-08
-2.0217e-06
9.6871e-08
-2.06917e-06
9.71496e-08
-2.11677e-06
9.74584e-08
-2.1645e-06
9.7798e-08
-2.21239e-06
9.81687e-08
-2.26045e-06
9.85709e-08
-2.30867e-06
9.90042e-08
-2.35707e-06
9.94682e-08
-2.40566e-06
9.99616e-08
-2.45445e-06
1.00483e-07
-2.50343e-06
1.01029e-07
-2.55263e-06
1.01598e-07
-2.60202e-06
1.02185e-07
-2.65162e-06
1.02785e-07
-2.70142e-06
1.03393e-07
-2.7514e-06
1.04001e-07
-2.80155e-06
1.04599e-07
-2.85184e-06
1.05177e-07
-2.90225e-06
1.0572e-07
-2.95274e-06
1.0621e-07
-3.00324e-06
1.06627e-07
-3.05371e-06
1.06945e-07
-3.10406e-06
1.07136e-07
-3.1542e-06
1.07164e-07
-3.20402e-06
1.06989e-07
-3.25336e-06
1.06561e-07
-3.30208e-06
1.05827e-07
-3.34998e-06
1.04721e-07
-3.39682e-06
1.0317e-07
-3.44234e-06
1.01089e-07
-3.48622e-06
9.83806e-08
-3.5281e-06
9.49362e-08
-3.56755e-06
9.06319e-08
-3.6041e-06
8.53305e-08
-3.63718e-06
7.88817e-08
-3.66617e-06
7.11204e-08
-3.69036e-06
6.18637e-08
-3.70896e-06
5.09104e-08
-3.72109e-06
3.80512e-08
-3.72577e-06
2.30815e-08
-3.72192e-06
5.78846e-09
-3.70847e-06
-1.38822e-08
-3.68437e-06
-3.59132e-08
-3.64842e-06
-6.03635e-08
-3.59949e-06
-8.72113e-08
-3.53652e-06
-1.16322e-07
-3.45855e-06
-1.47437e-07
-3.36481e-06
-1.8017e-07
-3.25478e-06
-2.14001e-07
-3.12823e-06
-2.48291e-07
-2.98529e-06
-2.823e-07
-2.82649e-06
-3.15226e-07
-2.65275e-06
-3.46249e-07
-2.4654e-06
-3.74582e-07
-2.26611e-06
-3.99518e-07
-2.05683e-06
-4.20471e-07
-1.83974e-06
-4.37014e-07
-1.61713e-06
-4.48893e-07
-1.39133e-06
-4.56039e-07
-1.16456e-06
-4.58561e-07
-9.3892e-07
-4.56741e-07
-7.16192e-07
-4.51056e-07
-4.97761e-07
-4.42177e-07
-2.84593e-07
-4.30775e-07
-7.69984e-08
-4.17778e-07
1.22814e-07
-4.02965e-07
3.12384e-07
-3.85502e-07
4.91714e-07
-3.66005e-07
6.60922e-07
-3.45671e-07
8.2028e-07
-3.25356e-07
9.70051e-07
-3.05472e-07
1.11058e-06
-2.86272e-07
1.2423e-06
-2.6792e-07
1.36565e-06
-2.50517e-07
1.48111e-06
-2.3412e-07
1.58917e-06
-2.1875e-07
1.69033e-06
-2.044e-07
1.78504e-06
-1.91047e-07
1.87377e-06
-1.78651e-07
1.95694e-06
-1.67164e-07
2.03498e-06
-1.56535e-07
2.10825e-06
-1.46709e-07
2.17713e-06
-1.37629e-07
2.24193e-06
-1.29237e-07
2.30296e-06
-1.21481e-07
2.3605e-06
-1.14306e-07
2.41481e-06
-1.07662e-07
2.46612e-06
-1.01503e-07
2.51463e-06
-9.57835e-08
2.56055e-06
-9.04644e-08
2.60404e-06
-8.55079e-08
2.64526e-06
-8.08798e-08
2.68435e-06
-7.65492e-08
2.72145e-06
-7.24874e-08
2.75667e-06
-6.86686e-08
2.79012e-06
-6.50704e-08
2.8219e-06
-6.16729e-08
2.85209e-06
-5.84586e-08
2.88079e-06
-5.54124e-08
2.90805e-06
-5.25203e-08
2.93397e-06
-4.97698e-08
2.95859e-06
-4.71499e-08
2.98198e-06
-4.46508e-08
3.00419e-06
-4.22638e-08
3.02528e-06
-3.99818e-08
3.04529e-06
-3.77991e-08
3.06427e-06
-3.57102e-08
3.08227e-06
-3.37071e-08
3.09933e-06
-3.17803e-08
3.11547e-06
-2.99206e-08
3.13073e-06
-2.8117e-08
3.14512e-06
-2.63545e-08
3.15867e-06
-2.46179e-08
3.17138e-06
-2.28875e-08
3.18322e-06
-2.11337e-08
3.19419e-06
-1.93209e-08
3.20422e-06
-1.7398e-08
3.21323e-06
-1.52884e-08
3.22108e-06
-1.28874e-08
3.22755e-06
-1.00392e-08
3.23229e-06
-6.50876e-09
3.23476e-06
-1.93832e-09
3.23412e-06
4.34629e-09
3.22899e-06
1.36164e-08
3.21696e-06
2.82685e-08
3.19387e-06
5.37077e-08
3.15273e-06
1.02286e-07
2.07009e-07
3.09469e-06
4.47521e-09
-4.1788e-08
1.91491e-09
-3.15722e-08
-6.42894e-09
-1.66658e-08
-1.98115e-08
-6.92653e-10
-3.72101e-08
1.51412e-08
-5.77097e-08
3.02126e-08
-8.07798e-08
4.43415e-08
-1.06116e-07
5.74205e-08
-1.33571e-07
6.93733e-08
-1.62911e-07
8.01857e-08
-1.93898e-07
8.98568e-08
-2.26362e-07
9.83878e-08
-2.6022e-07
1.05805e-07
-2.95391e-07
1.12173e-07
-3.3177e-07
1.17583e-07
-3.69243e-07
1.22133e-07
-4.07696e-07
1.25925e-07
-4.47022e-07
1.29056e-07
-4.87119e-07
1.31617e-07
-5.27893e-07
1.33694e-07
-5.69252e-07
1.35363e-07
-6.11105e-07
1.36692e-07
-6.53351e-07
1.37742e-07
-6.95908e-07
1.38556e-07
-7.38727e-07
1.3917e-07
-7.81764e-07
1.39619e-07
-8.24977e-07
1.39931e-07
-8.68333e-07
1.40133e-07
-9.11801e-07
1.40247e-07
-9.55356e-07
1.40292e-07
-9.98978e-07
1.40285e-07
-1.04265e-06
1.40238e-07
-1.08636e-06
1.40165e-07
-1.1301e-06
1.40074e-07
-1.17386e-06
1.39974e-07
-1.21764e-06
1.39872e-07
-1.26143e-06
1.39774e-07
-1.30523e-06
1.39685e-07
-1.34905e-06
1.39609e-07
-1.39287e-06
1.39549e-07
-1.43672e-06
1.3951e-07
-1.48058e-06
1.39494e-07
-1.52447e-06
1.39503e-07
-1.56838e-06
1.39539e-07
-1.61232e-06
1.39604e-07
-1.65631e-06
1.397e-07
-1.70033e-06
1.39827e-07
-1.74441e-06
1.39987e-07
-1.78855e-06
1.40181e-07
-1.83275e-06
1.40409e-07
-1.87703e-06
1.40672e-07
-1.92138e-06
1.40972e-07
-1.96582e-06
1.41307e-07
-2.01035e-06
1.41679e-07
-2.05498e-06
1.42088e-07
-2.09971e-06
1.42532e-07
-2.14455e-06
1.43013e-07
-2.18951e-06
1.43529e-07
-2.23458e-06
1.44078e-07
-2.27977e-06
1.4466e-07
-2.32508e-06
1.45272e-07
-2.3705e-06
1.4591e-07
-2.41605e-06
1.46571e-07
-2.4617e-06
1.47248e-07
-2.50745e-06
1.47935e-07
-2.5533e-06
1.48625e-07
-2.59922e-06
1.49306e-07
-2.64519e-06
1.49966e-07
-2.69118e-06
1.50591e-07
-2.73717e-06
1.51161e-07
-2.78311e-06
1.51654e-07
-2.82895e-06
1.52044e-07
-2.87462e-06
1.52299e-07
-2.92006e-06
1.52382e-07
-2.96518e-06
1.52249e-07
-3.00986e-06
1.51849e-07
-3.054e-06
1.51123e-07
-3.09744e-06
1.50001e-07
-3.14002e-06
1.48403e-07
-3.18154e-06
1.46237e-07
-3.22177e-06
1.43398e-07
-3.26045e-06
1.39765e-07
-3.29727e-06
1.352e-07
-3.33188e-06
1.29548e-07
-3.36388e-06
1.22635e-07
-3.39281e-06
1.14269e-07
-3.41817e-06
1.04238e-07
-3.43936e-06
9.23101e-08
-3.45573e-06
7.8233e-08
-3.46655e-06
6.17317e-08
-3.47102e-06
4.25214e-08
-3.46826e-06
2.03143e-08
-3.45735e-06
-5.12265e-09
-3.43734e-06
-3.38996e-08
-3.40715e-06
-6.61013e-08
-3.36573e-06
-1.01797e-07
-3.31199e-06
-1.40951e-07
-3.24493e-06
-1.83378e-07
-3.16365e-06
-2.28724e-07
-3.06737e-06
-2.76448e-07
-2.95555e-06
-3.25813e-07
-2.82795e-06
-3.75896e-07
-2.68463e-06
-4.25617e-07
-2.52607e-06
-4.73787e-07
-2.35314e-06
-5.19175e-07
-2.16714e-06
-5.60587e-07
-1.96971e-06
-5.96942e-07
-1.76283e-06
-6.27349e-07
-1.54869e-06
-6.51161e-07
-1.32957e-06
-6.68013e-07
-1.10777e-06
-6.77837e-07
-8.85482e-07
-6.80846e-07
-6.64686e-07
-6.77536e-07
-4.47008e-07
-6.68733e-07
-2.33771e-07
-6.55413e-07
-2.62813e-08
-6.38264e-07
1.73138e-07
-6.17195e-07
3.62656e-07
-5.92479e-07
5.42227e-07
-5.6507e-07
7.12177e-07
-5.35951e-07
8.72721e-07
-5.06211e-07
1.02404e-06
-4.76666e-07
1.16638e-06
-4.47815e-07
1.3001e-06
-4.19983e-07
1.42557e-06
-3.93391e-07
1.54322e-06
-3.68174e-07
1.65351e-06
-3.44408e-07
1.75688e-06
-3.22121e-07
1.85379e-06
-3.01305e-07
1.94467e-06
-2.81923e-07
2.02994e-06
-2.63923e-07
2.11002e-06
-2.47237e-07
2.18528e-06
-2.31788e-07
2.25607e-06
-2.17497e-07
2.32272e-06
-2.04281e-07
2.38555e-06
-1.92059e-07
2.44481e-06
-1.80751e-07
2.50078e-06
-1.70279e-07
2.55369e-06
-1.60573e-07
2.60376e-06
-1.51566e-07
2.65116e-06
-1.43194e-07
2.6961e-06
-1.35398e-07
2.73871e-06
-1.28126e-07
2.77916e-06
-1.21328e-07
2.81757e-06
-1.14958e-07
2.85406e-06
-1.08978e-07
2.88874e-06
-1.0335e-07
2.92171e-06
-9.8044e-08
2.95307e-06
-9.30307e-08
2.98289e-06
-8.82847e-08
3.01126e-06
-8.37835e-08
3.03825e-06
-7.95076e-08
3.06392e-06
-7.54395e-08
3.08834e-06
-7.15638e-08
3.11156e-06
-6.78676e-08
3.13364e-06
-6.43396e-08
3.15463e-06
-6.09693e-08
3.17458e-06
-5.77462e-08
3.19353e-06
-5.46602e-08
3.21152e-06
-5.17011e-08
3.22859e-06
-4.88565e-08
3.24479e-06
-4.61127e-08
3.26013e-06
-4.34535e-08
3.27463e-06
-4.08581e-08
3.28832e-06
-3.83032e-08
3.30119e-06
-3.57597e-08
3.31324e-06
-3.31858e-08
3.32444e-06
-3.05267e-08
3.33475e-06
-2.77082e-08
3.34409e-06
-2.46224e-08
3.35232e-06
-2.11176e-08
3.35925e-06
-1.69713e-08
3.3646e-06
-1.18464e-08
3.36788e-06
-5.2209e-09
3.36843e-06
3.79901e-09
3.36524e-06
1.68104e-08
3.35682e-06
3.66935e-08
3.34134e-06
6.91877e-08
3.31795e-06
1.25675e-07
2.29065e-07
3.2959e-06
-9.10868e-09
-3.26796e-08
-2.40628e-08
-1.65757e-08
-4.26846e-08
1.97477e-09
-6.36124e-08
2.02479e-08
-8.60584e-08
3.7597e-08
-1.09836e-07
5.39976e-08
-1.34865e-07
6.93759e-08
-1.61082e-07
8.36417e-08
-1.88433e-07
9.67279e-08
-2.16848e-07
1.08604e-07
-2.46257e-07
1.19268e-07
-2.76612e-07
1.28745e-07
-3.07884e-07
1.37079e-07
-3.40047e-07
1.44338e-07
-3.73067e-07
1.50604e-07
-4.06901e-07
1.55969e-07
-4.41501e-07
1.60527e-07
-4.76812e-07
1.6437e-07
-5.12779e-07
1.67587e-07
-5.49343e-07
1.7026e-07
-5.86443e-07
1.72464e-07
-6.24017e-07
1.74268e-07
-6.62006e-07
1.7573e-07
-7.00354e-07
1.76903e-07
-7.39015e-07
1.7783e-07
-7.7795e-07
1.78551e-07
-8.17121e-07
1.791e-07
-8.56495e-07
1.79506e-07
-8.96045e-07
1.79796e-07
-9.35743e-07
1.79991e-07
-9.75567e-07
1.80112e-07
-1.0155e-06
1.80174e-07
-1.05552e-06
1.80193e-07
-1.09563e-06
1.8018e-07
-1.1358e-06
1.80146e-07
-1.17602e-06
1.80101e-07
-1.2163e-06
1.80053e-07
-1.25663e-06
1.80007e-07
-1.29699e-06
1.79971e-07
-1.33739e-06
1.79949e-07
-1.37783e-06
1.79947e-07
-1.41831e-06
1.79967e-07
-1.45882e-06
1.80013e-07
-1.49937e-06
1.80087e-07
-1.53996e-06
1.80193e-07
-1.58058e-06
1.80331e-07
-1.62126e-06
1.80504e-07
-1.66198e-06
1.80712e-07
-1.70276e-06
1.80958e-07
-1.74359e-06
1.81241e-07
-1.78448e-06
1.81564e-07
-1.82543e-06
1.81926e-07
-1.86645e-06
1.82328e-07
-1.90755e-06
1.8277e-07
-1.94871e-06
1.83252e-07
-1.98996e-06
1.83773e-07
-2.03128e-06
1.84332e-07
-2.07268e-06
1.84928e-07
-2.11416e-06
1.85557e-07
-2.15572e-06
1.86218e-07
-2.19735e-06
1.86906e-07
-2.23905e-06
1.87615e-07
-2.28082e-06
1.8834e-07
-2.32265e-06
1.89072e-07
-2.36451e-06
1.89802e-07
-2.40641e-06
1.90518e-07
-2.44831e-06
1.91205e-07
-2.4902e-06
1.91848e-07
-2.53203e-06
1.92423e-07
-2.57378e-06
1.92908e-07
-2.6154e-06
1.9327e-07
-2.65683e-06
1.93476e-07
-2.69802e-06
1.93483e-07
-2.73888e-06
1.93243e-07
-2.77933e-06
1.92698e-07
-2.81926e-06
1.91782e-07
-2.85856e-06
1.90418e-07
-2.89707e-06
1.88517e-07
-2.93465e-06
1.85976e-07
-2.97109e-06
1.82678e-07
-3.00618e-06
1.78487e-07
-3.03967e-06
1.73249e-07
-3.07126e-06
1.66792e-07
-3.10063e-06
1.58917e-07
-3.1274e-06
1.49404e-07
-3.15115e-06
1.38012e-07
-3.17138e-06
1.24471e-07
-3.18757e-06
1.08491e-07
-3.19909e-06
8.97542e-08
-3.20528e-06
6.79209e-08
-3.2054e-06
4.26401e-08
-3.19863e-06
1.35458e-08
-3.18412e-06
-1.96298e-08
-3.16096e-06
-5.70626e-08
-3.12812e-06
-9.894e-08
-3.08456e-06
-1.45357e-07
-3.02924e-06
-1.96276e-07
-2.96113e-06
-2.51483e-07
-2.87931e-06
-3.10552e-07
-2.78294e-06
-3.72813e-07
-2.67142e-06
-4.37334e-07
-2.54439e-06
-5.02927e-07
-2.40184e-06
-5.68175e-07
-2.24414e-06
-6.31489e-07
-2.07212e-06
-6.91191e-07
-1.88708e-06
-7.45631e-07
-1.69072e-06
-7.93304e-07
-1.4851e-06
-8.32962e-07
-1.27255e-06
-8.63712e-07
-1.05549e-06
-8.85073e-07
-8.36332e-07
-8.96998e-07
-6.17333e-07
-8.99845e-07
-4.00481e-07
-8.94387e-07