/*--------------------------------*- C++ -*----------------------------------*\
| =========                 |                                                 |
| \\      /  F ield         | OpenFOAM: The Open Source CFD Toolbox           |
|  \\    /   O peration     | Version:  1.4.2                                 |
|   \\  /    A nd           | Web:      http://www.openfoam.org               |
|    \\/     M anipulation  |                                                 |
\*---------------------------------------------------------------------------*/
FoamFile
{
    version     2.0;
    format      ascii;
    class       volVectorField;
    object      U;
    location    "450";
}
// * * * * * * * * * * * * * * * * * * * * * * * * * * * * * * * * * * * * * //

dimensions      [0 1 -1 0 0 0 0];

internalField   nonuniform List<vector> 
12225
(
(9.7763 0.0380828 0)
(9.5816 0.0388091 0)
(9.36726 0.0370299 0)
(9.16151 0.0361682 0)
(8.97056 0.0352263 0)
(8.79224 0.034059 0)
(8.62536 0.0327947 0)
(8.46962 0.0314969 0)
(8.32469 0.0301797 0)
(8.19009 0.0288482 0)
(8.06536 0.0275065 0)
(7.95008 0.0261548 0)
(7.84385 0.0247869 0)
(7.74639 0.0233832 0)
(7.65757 0.0218978 0)
(7.57756 0.020212 0)
(7.50805 0.018066 0)
(7.44259 0.00502035 0)
(10.004 0.0585831 0)
(10.0077 0.0555444 0)
(9.98296 0.0518878 0)
(9.95089 0.0514667 0)
(9.91795 0.0511988 0)
(9.88367 0.0505524 0)
(9.84803 0.0497322 0)
(9.81162 0.048829 0)
(9.7749 0.0478423 0)
(9.73823 0.046764 0)
(9.70189 0.0455884 0)
(9.66619 0.0443021 0)
(9.63143 0.0428744 0)
(9.59798 0.0412391 0)
(9.56634 0.0392548 0)
(9.53726 0.0365869 0)
(9.51226 0.0324001 0)
(9.4894 0.0229123 0)
(10.0174 0.0524427 0)
(10.037 0.0527021 0)
(10.0382 0.0512914 0)
(10.0336 0.0522549 0)
(10.0282 0.0528988 0)
(10.0218 0.0529076 0)
(10.0142 0.0526135 0)
(10.006 0.0521606 0)
(9.99726 0.0515672 0)
(9.98822 0.0508322 0)
(9.97901 0.0499491 0)
(9.96975 0.0488944 0)
(9.9606 0.0476145 0)
(9.95176 0.0460024 0)
(9.94349 0.0438436 0)
(9.93606 0.0406892 0)
(9.92975 0.03552 0)
(9.9212 0.0258012 0)
(10.0158 0.0449756 0)
(10.0375 0.0501748 0)
(10.0458 0.0507308 0)
(10.0487 0.0522672 0)
(10.0506 0.0532706 0)
(10.0517 0.0535974 0)
(10.0519 0.0535644 0)
(10.0515 0.0533193 0)
(10.0507 0.0528928 0)
(10.0497 0.0522899 0)
(10.0487 0.051503 0)
(10.0476 0.050502 0)
(10.0466 0.0492212 0)
(10.0458 0.0475377 0)
(10.0453 0.0452278 0)
(10.045 0.0418916 0)
(10.0449 0.036873 0)
(10.0425 0.0292694 0)
(10.0125 0.0371128 0)
(10.033 0.0462137 0)
(10.0445 0.0486768 0)
(10.0507 0.0508275 0)
(10.0557 0.0521717 0)
(10.0598 0.0527492 0)
(10.0631 0.0528892 0)
(10.0658 0.0527573 0)
(10.0682 0.0524011 0)
(10.0703 0.0518329 0)
(10.0723 0.0510462 0)
(10.0743 0.0500092 0)
(10.0763 0.0486544 0)
(10.0783 0.0468631 0)
(10.0804 0.0444402 0)
(10.0825 0.0410894 0)
(10.0842 0.036455 0)
(10.0841 0.030326 0)
(10.0094 0.0302745 0)
(10.0272 0.0414677 0)
(10.0398 0.0455634 0)
(10.0481 0.0483982 0)
(10.0549 0.0501463 0)
(10.0607 0.0510121 0)
(10.0656 0.0513432 0)
(10.07 0.0513264 0)
(10.074 0.0510337 0)
(10.0777 0.0504919 0)
(10.0812 0.0497009 0)
(10.0847 0.0486324 0)
(10.088 0.0472253 0)
(10.0913 0.0453778 0)
(10.0945 0.04294 0)
(10.0974 0.0397209 0)
(10.0997 0.0355703 0)
(10.1007 0.0305816 0)
(10.0067 0.0245283 0)
(10.0215 0.0364894 0)
(10.034 0.0417493 0)
(10.0432 0.0451631 0)
(10.0511 0.0473147 0)
(10.058 0.0484923 0)
(10.0641 0.0490407 0)
(10.0695 0.0491627 0)
(10.0745 0.0489519 0)
(10.0792 0.0484503 0)
(10.0837 0.0476675 0)
(10.0879 0.0465845 0)
(10.092 0.0451542 0)
(10.0959 0.0433007 0)
(10.0996 0.0409236 0)
(10.1029 0.0379202 0)
(10.1055 0.0342635 0)
(10.1071 0.0301503 0)
(10.005 0.0204182 0)
(10.0173 0.0323326 0)
(10.029 0.0382037 0)
(10.0384 0.0419824 0)
(10.0466 0.0444072 0)
(10.054 0.0458114 0)
(10.0607 0.0465332 0)
(10.0668 0.0467787 0)
(10.0724 0.0466506 0)
(10.0776 0.0461999 0)
(10.0826 0.0454446 0)
(10.0873 0.0443759 0)
(10.0917 0.0429616 0)
(10.096 0.0411506 0)
(10.0999 0.0388821 0)
(10.1034 0.0361103 0)
(10.1062 0.0328665 0)
(10.1082 0.029359 0)
(10.0038 0.0172731 0)
(10.0141 0.0287664 0)
(10.0248 0.0349405 0)
(10.034 0.0389558 0)
(10.0423 0.0415717 0)
(10.0499 0.043145 0)
(10.0569 0.0440028 0)
(10.0633 0.0443488 0)
(10.0693 0.044292 0)
(10.0749 0.0438905 0)
(10.0802 0.0431699 0)
(10.0852 0.0421304 0)
(10.0899 0.0407533 0)
(10.0944 0.0390081 0)
(10.0984 0.0368643 0)
(10.102 0.0343144 0)
(10.105 0.0314191 0)
(10.1073 0.0283751 0)
(10.0029 0.014428 0)
(10.0112 0.0251429 0)
(10.0207 0.0313861 0)
(10.0295 0.0355181 0)
(10.0376 0.038262 0)
(10.0452 0.0399693 0)
(10.0523 0.0409441 0)
(10.0589 0.0413831 0)
(10.0651 0.0413978 0)
(10.0709 0.0410518 0)
(10.0764 0.0403774 0)
(10.0817 0.039385 0)
(10.0866 0.0380701 0)
(10.0911 0.0364223 0)
(10.0953 0.0344372 0)
(10.099 0.0321348 0)
(10.1021 0.0295898 0)
(10.1046 0.0269784 0)
(10.0021 0.0118811 0)
(10.0087 0.021547 0)
(10.017 0.0276241 0)
(10.0251 0.031728 0)
(10.0328 0.0345093 0)
(10.0402 0.0362924 0)
(10.0472 0.0373474 0)
(10.0538 0.0378579 0)
(10.06 0.0379346 0)
(10.0659 0.0376439 0)
(10.0716 0.0370246 0)
(10.0768 0.0360966 0)
(10.0818 0.034869 0)
(10.0864 0.0333489 0)
(10.0906 0.0315518 0)
(10.0944 0.0295152 0)
(10.0976 0.0273153 0)
(10.1004 0.0251024 0)
(10.0015 0.00962846 0)
(10.0067 0.0180547 0)
(10.0138 0.0237348 0)
(10.021 0.0276595 0)
(10.0282 0.0303704 0)
(10.0351 0.0321527 0)
(10.0419 0.0332353 0)
(10.0483 0.0337831 0)
(10.0545 0.0339017 0)
(10.0603 0.0336586 0)
(10.0659 0.0330973 0)
(10.0711 0.0322461 0)
(10.0761 0.0311255 0)
(10.0806 0.0297561 0)
(10.0848 0.0281666 0)
(10.0886 0.0264022 0)
(10.0919 0.0245333 0)
(10.0948 0.0226819 0)
(10.0011 0.00764669 0)
(10.0052 0.0147205 0)
(10.0111 0.019791 0)
(10.0174 0.0233844 0)
(10.0239 0.0259089 0)
(10.0304 0.0276017 0)
(10.0367 0.0286482 0)
(10.0429 0.0291895 0)
(10.0488 0.0293223 0)
(10.0544 0.0291124 0)
(10.0598 0.0286062 0)
(10.0649 0.0278376 0)
(10.0697 0.0268356 0)
(10.0742 0.0256293 0)
(10.0783 0.0242539 0)
(10.082 0.0227552 0)
(10.0854 0.0211933 0)
(10.0884 0.0196637 0)
(10.0009 0.00589191 0)
(10.004 0.0115657 0)
(10.0089 0.0158466 0)
(10.0144 0.0189605 0)
(10.0203 0.0211806 0)
(10.0262 0.0226893 0)
(10.032 0.0236295 0)
(10.0378 0.0241148 0)
(10.0434 0.0242293 0)
(10.0488 0.0240338 0)
(10.0539 0.0235743 0)
(10.0588 0.0228877 0)
(10.0634 0.0220069 0)
(10.0676 0.0209646 0)
(10.0716 0.0197969 0)
(10.0752 0.0185454 0)
(10.0785 0.0172585 0)
(10.0816 0.0160088 0)
(10.0007 0.00430907 0)
(10.0032 0.008576 0)
(10.0072 0.0119259 0)
(10.012 0.0144212 0)
(10.0172 0.0162202 0)
(10.0226 0.0174488 0)
(10.028 0.018209 0)
(10.0333 0.0185858 0)
(10.0385 0.0186464 0)
(10.0436 0.0184431 0)
(10.0484 0.0180178 0)
(10.053 0.0174062 0)
(10.0574 0.0166407 0)
(10.0615 0.0157531 0)
(10.0653 0.0147764 0)
(10.0688 0.013745 0)
(10.072 0.0126964 0)
(10.0751 0.0116843 0)
(10.0005 0.00283731 0)
(10.0026 0.00569964 0)
(10.006 0.00800968 0)
(10.0102 0.00976019 0)
(10.0149 0.0110257 0)
(10.0197 0.0118796 0)
(10.0247 0.0123852 0)
(10.0296 0.0125984 0)
(10.0345 0.0125667 0)
(10.0392 0.0123297 0)
(10.0438 0.0119212 0)
(10.0481 0.0113713 0)
(10.0522 0.0107079 0)
(10.0561 0.00995811 0)
(10.0598 0.00914866 0)
(10.0632 0.00830624 0)
(10.0663 0.00745821 0)
(10.0693 0.00664383 0)
(10.0005 0.00140909 0)
(10.0023 0.00284725 0)
(10.0053 0.00402496 0)
(10.009 0.00491807 0)
(10.0133 0.00554571 0)
(10.0177 0.00593499 0)
(10.0223 0.00611318 0)
(10.027 0.00610709 0)
(10.0315 0.00594199 0)
(10.036 0.00564119 0)
(10.0403 0.00522642 0)
(10.0444 0.00471833 0)
(10.0483 0.00413689 0)
(10.052 0.00350155 0)
(10.0555 0.00283115 0)
(10.0588 0.00214417 0)
(10.0619 0.00145943 0)
(10.0649 0.000805313 0)
(10.0004 2.21491e-05 0)
(10.0021 5.0994e-05 0)
(10.005 7.62596e-05 0)
(10.0086 7.56591e-05 0)
(10.0126 2.65726e-05 0)
(10.0169 -8.53435e-05 0)
(10.0213 -0.000266903 0)
(10.0257 -0.000519776 0)
(10.0301 -0.000841752 0)
(10.0343 -0.00122756 0)
(10.0385 -0.00166959 0)
(10.0424 -0.00215863 0)
(10.0462 -0.00268435 0)
(10.0498 -0.00323588 0)
(10.0532 -0.00380207 0)
(10.0565 -0.00437186 0)
(10.0595 -0.00493341 0)
(10.0625 -0.00546674 0)
(10.0005 -0.00130036 0)
(10.0023 -0.00260223 0)
(10.0052 -0.00364736 0)
(10.0089 -0.00446579 0)
(10.013 -0.00512766 0)
(10.0173 -0.00568961 0)
(10.0216 -0.00619183 0)
(10.026 -0.00666356 0)
(10.0303 -0.00712484 0)
(10.0345 -0.00758766 0)
(10.0386 -0.00805787 0)
(10.0425 -0.00853699 0)
(10.0462 -0.00902357 0)
(10.0498 -0.00951428 0)
(10.0532 -0.0100046 0)
(10.0564 -0.0104893 0)
(10.0594 -0.0109614 0)
(10.0623 -0.0114073 0)
(10.0005 -0.00261716 0)
(10.0026 -0.00518621 0)
(10.0059 -0.00718587 0)
(10.0099 -0.00869595 0)
(10.0142 -0.00985828 0)
(10.0187 -0.0107766 0)
(10.0232 -0.0115246 0)
(10.0276 -0.0121585 0)
(10.032 -0.0127186 0)
(10.0362 -0.013232 0)
(10.0402 -0.0137157 0)
(10.0441 -0.0141799 0)
(10.0478 -0.0146303 0)
(10.0514 -0.0150695 0)
(10.0547 -0.0154978 0)
(10.0579 -0.0159145 0)
(10.0609 -0.0163166 0)
(10.0638 -0.0166949 0)
(10.0007 -0.00404344 0)
(10.0033 -0.00787732 0)
(10.0072 -0.010721 0)
(10.0116 -0.0127912 0)
(10.0163 -0.0143372 0)
(10.021 -0.0155132 0)
(10.0257 -0.0164266 0)
(10.0303 -0.0171597 0)
(10.0347 -0.0177716 0)
(10.039 -0.0183013 0)
(10.0431 -0.0187748 0)
(10.047 -0.0192088 0)
(10.0507 -0.0196142 0)
(10.0542 -0.0199981 0)
(10.0575 -0.0203647 0)
(10.0606 -0.0207167 0)
(10.0636 -0.0210542 0)
(10.0665 -0.0213724 0)
(10.001 -0.00570407 0)
(10.0043 -0.0108217 0)
(10.0091 -0.0143673 0)
(10.0142 -0.0168467 0)
(10.0193 -0.0186505 0)
(10.0243 -0.0199783 0)
(10.0292 -0.0209703 0)
(10.0339 -0.021735 0)
(10.0384 -0.0223465 0)
(10.0427 -0.0228533 0)
(10.0467 -0.0232871 0)
(10.0506 -0.0236693 0)
(10.0542 -0.0240142 0)
(10.0576 -0.0243317 0)
(10.0609 -0.0246289 0)
(10.0639 -0.0249109 0)
(10.0668 -0.025181 0)
(10.0695 -0.0254384 0)
(10.0014 -0.00775116 0)
(10.0059 -0.0141385 0)
(10.0118 -0.0181747 0)
(10.0175 -0.0208827 0)
(10.0231 -0.0228044 0)
(10.0284 -0.0241685 0)
(10.0334 -0.0251471 0)
(10.0381 -0.0258723 0)
(10.0426 -0.0264297 0)
(10.0468 -0.0268728 0)
(10.0507 -0.0272367 0)
(10.0544 -0.0275449 0)
(10.0579 -0.0278132 0)
(10.0611 -0.0280523 0)
(10.0641 -0.0282707 0)
(10.067 -0.0284752 0)
(10.0697 -0.0286718 0)
(10.0722 -0.0288648 0)
(10.0021 -0.0103723 0)
(10.0083 -0.0179033 0)
(10.0154 -0.0221155 0)
(10.0218 -0.0248366 0)
(10.0275 -0.0267216 0)
(10.0329 -0.0280002 0)
(10.0379 -0.0288742 0)
(10.0424 -0.0294946 0)
(10.0466 -0.0299512 0)
(10.0506 -0.0302976 0)
(10.0542 -0.0305686 0)
(10.0576 -0.0307867 0)
(10.0607 -0.030967 0)
(10.0636 -0.0311195 0)
(10.0664 -0.0312519 0)
(10.0689 -0.0313717 0)
(10.0712 -0.0314875 0)
(10.0735 -0.03161 0)
(10.0033 -0.0137892 0)
(10.0117 -0.0221074 0)
(10.0199 -0.0260622 0)
(10.0265 -0.0285587 0)
(10.0321 -0.0302526 0)
(10.0372 -0.0313352 0)
(10.0418 -0.0320288 0)
(10.0459 -0.0324933 0)
(10.0496 -0.0328152 0)
(10.0529 -0.0330438 0)
(10.056 -0.0332099 0)
(10.0589 -0.033333 0)
(10.0615 -0.0334251 0)
(10.064 -0.0334931 0)
(10.0662 -0.033542 0)
(10.0683 -0.0335773 0)
(10.0702 -0.0336088 0)
(10.0719 -0.0336553 0)
(10.0051 -0.0182582 0)
(10.016 -0.0265804 0)
(10.0248 -0.0297446 0)
(10.0309 -0.0317948 0)
(10.0358 -0.0331643 0)
(10.0401 -0.0339659 0)
(10.0438 -0.0344335 0)
(10.047 -0.0347226 0)
(10.0498 -0.0349054 0)
(10.0523 -0.0350191 0)
(10.0546 -0.0350869 0)
(10.0567 -0.0351232 0)
(10.0585 -0.0351356 0)
(10.0602 -0.0351269 0)
(10.0617 -0.0350974 0)
(10.0631 -0.0350474 0)
(10.0643 -0.0349838 0)
(10.0653 -0.03493 0)
(10.0075 -0.0240988 0)
(10.0207 -0.0309672 0)
(10.0288 -0.0327264 0)
(10.0333 -0.034193 0)
(10.0366 -0.0352015 0)
(10.0393 -0.0357151 0)
(10.0415 -0.0359646 0)
(10.0431 -0.036093 0)
(10.0444 -0.0361528 0)
(10.0455 -0.0361668 0)
(10.0463 -0.0361497 0)
(10.0469 -0.0361107 0)
(10.0474 -0.0360535 0)
(10.0478 -0.0359771 0)
(10.048 -0.0358763 0)
(10.0481 -0.0357422 0)
(10.0481 -0.0355703 0)
(10.0478 -0.035371 0)
(10.0101 -0.0307285 0)
(10.0239 -0.0343699 0)
(10.0288 -0.0343019 0)
(10.0294 -0.0351513 0)
(10.0292 -0.0358257 0)
(10.0285 -0.0360839 0)
(10.0271 -0.0361371 0)
(10.0254 -0.036112 0)
(10.0233 -0.0360445 0)
(10.0211 -0.0359479 0)
(10.0187 -0.0358322 0)
(10.0161 -0.035704 0)
(10.0136 -0.0355648 0)
(10.0109 -0.0354109 0)
(10.0082 -0.035232 0)
(10.0055 -0.0350058 0)
(10.0027 -0.0346986 0)
(9.99966 -0.0342477 0)
(10.0062 -0.0363983 0)
(10.0143 -0.0379257 0)
(10.0068 -0.0360779 0)
(9.99441 -0.0359267 0)
(9.98189 -0.0359343 0)
(9.9692 -0.0357112 0)
(9.95614 -0.035398 0)
(9.94289 -0.0350811 0)
(9.92964 -0.0347725 0)
(9.91648 -0.0344697 0)
(9.90346 -0.0341721 0)
(9.8906 -0.0338795 0)
(9.87795 -0.0335896 0)
(9.86552 -0.0332968 0)
(9.85335 -0.0329888 0)
(9.84146 -0.032636 0)
(9.82989 -0.0321699 0)
(9.8181 -0.0312045 0)
(9.89293 -0.0248278 0)
(9.80341 -0.0270696 0)
(9.69915 -0.0264781 0)
(9.59625 -0.0263246 0)
(9.49984 -0.0261272 0)
(9.40899 -0.0257763 0)
(9.32284 -0.0253643 0)
(9.24113 -0.0249452 0)
(9.16372 -0.0245312 0)
(9.09037 -0.0241236 0)
(9.02086 -0.0237232 0)
(8.95497 -0.0233302 0)
(8.89251 -0.0229436 0)
(8.83331 -0.0225614 0)
(8.77721 -0.0221782 0)
(8.72408 -0.0217782 0)
(8.67399 -0.0213144 0)
(8.62546 -0.0204284 0)
(0.0119416 -0.0235924 0)
(0.0279964 -0.0302818 0)
(0.0472519 -0.0289418 0)
(0.0633384 -0.0237623 0)
(0.0742707 -0.0171435 0)
(0.079729 -0.0101004 0)
(0.0792461 -0.00284019 -1.65343e-19)
(0.0728271 0.00460756 1.60483e-19)
(0.0609887 0.0121504 0)
(0.0441023 0.0198689 1.63816e-19)
(0.0227284 0.0276177 0)
(-0.00409119 0.0348921 0)
(-0.0345906 0.0403219 0)
(-0.068004 0.0440788 -1.3673e-19)
(-0.104001 0.0467296 0)
(-0.142017 0.0485736 0)
(-0.181639 0.0497743 9.9744e-20)
(-0.222529 0.0504463 0)
(-0.264388 0.0506903 0)
(-0.30696 0.050612 0)
(-0.350065 0.0503486 -7.15873e-20)
(-0.393625 0.0501191 0)
(-0.437535 0.0502901 -6.22434e-20)
(-0.481717 0.050386 0)
(-0.52621 0.0501011 0)
(-0.570826 0.0497191 -5.2678e-20)
(-0.615534 0.0493114 0)
(-0.660306 0.0488921 4.79794e-20)
(-0.705116 0.0484657 0)
(-0.749944 0.0480357 -4.41599e-20)
(-0.794775 0.0476057 0)
(-0.839599 0.047179 0)
(-0.88441 0.046759 0)
(-0.929203 0.0463484 0)
(-0.973981 0.0459498 0)
(-1.01874 0.0455652 3.61302e-20)
(-1.0635 0.0451962 0)
(-1.10825 0.0448435 -6.84346e-20)
(-1.153 0.0445078 0)
(-1.19777 0.0441891 6.51305e-20)
(-1.24256 0.0438871 0)
(-1.28739 0.0436013 0)
(-1.33225 0.0433312 -6.09493e-20)
(-1.37718 0.0430762 0)
(-1.42218 0.0428361 -5.85757e-20)
(-1.46726 0.0426113 5.74923e-20)
(-1.51244 0.0424022 0)
(-1.55773 0.0422096 5.55042e-20)
(-1.60315 0.0420343 5.45901e-20)
(-1.6487 0.0418767 0)
(-1.69442 0.0417371 0)
(-1.74031 0.0416152 0)
(-1.78639 0.0415106 0)
(-1.83268 0.0414229 0)
(-1.8792 0.0413517 -4.99861e-20)
(-1.92598 0.0412968 0)
(-1.97302 0.0412582 4.87159e-20)
(-2.02036 0.0412361 0)
(-2.068 0.0412305 0)
(-2.11598 0.0412411 -4.69935e-20)
(-2.16431 0.0412677 0)
(-2.21301 0.0413098 4.59453e-20)
(-2.2621 0.0413668 0)
(-2.31161 0.0414383 0)
(-2.36155 0.0415234 0)
(-2.41193 0.0416209 -4.40293e-20)
(-2.46279 0.0417289 0)
(-2.51412 0.0418453 0)
(-2.56595 0.041967 -4.2702e-20)
(-2.61828 0.0420901 0)
(-2.67111 0.0422096 -4.18468e-20)
(-2.72445 0.0423192 0)
(-2.77827 0.0424116 0)
(-2.83255 0.0424782 0)
(-2.88726 0.0425089 4.01508e-20)
(-2.94235 0.0424915 0)
(-2.99775 0.0424121 0)
(-3.05337 0.0422545 3.88325e-20)
(-3.10909 0.0420004 3.83721e-20)
(-3.16478 0.0416282 0)
(-3.22026 0.0411127 3.7402e-20)
(-3.2753 0.0404247 0)
(-3.32966 0.0395304 7.26822e-20)
(-3.383 0.0383914 0)
(-3.43498 0.0369651 7.03048e-20)
(-3.48514 0.0352048 0)
(-3.53297 0.033059 -6.75755e-20)
(-3.57783 0.0304705 0)
(-3.61903 0.0273736 0)
(-3.65578 0.02369 0)
(-3.68723 0.0193314 6.05127e-20)
(-3.71237 0.0142192 0)
(-3.73 0.0083205 -5.58207e-20)
(-3.73869 0.00165875 0)
(-3.73719 -0.00574224 4.9836e-20)
(-3.72438 -0.0139144 4.62805e-20)
(-3.69896 -0.0228861 4.23173e-20)
(-3.65966 -0.0326239 0)
(-3.60534 -0.0430556 0)
(-3.53499 -0.0540696 0)
(-3.44786 -0.0655146 0)
(-3.3435 -0.0772017 0)
(-3.22183 -0.088911 0)
(-3.08314 -0.100401 0)
(-2.92817 -0.111421 0)
(-2.75806 -0.121724 1.80634e-20)
(-2.5743 -0.131081 2.81182e-20)
(-2.37872 -0.139293 0)
(-2.17342 -0.146196 0)
(-1.96065 -0.151668 0)
(-1.74273 -0.155622 7.64256e-20)
(-1.52201 -0.157997 0)
(-1.30072 -0.158766 0)
(-1.081 -0.157978 0)
(-0.864732 -0.15584 0)
(-0.653496 -0.152723 -1.58543e-19)
(-0.448779 -0.149079 0)
(-0.251983 -0.145579 0)
(-0.0605365 -0.141028 2.25309e-19)
(0.126092 -0.133647 -2.33484e-19)
(0.29954 -0.125178 0)
(0.463977 -0.11657 -2.26639e-19)
(0.618987 -0.108109 0)
(0.764749 -0.0999618 2.19841e-19)
(0.901592 -0.0922371 0)
(1.02992 -0.0849952 0)
(1.15018 -0.078261 0)
(1.26285 -0.072037 0)
(1.36841 -0.066311 0)
(1.46732 -0.0610613 -4.0354e-19)
(1.56007 -0.0562616 -3.98656e-19)
(1.64709 -0.051882 0)
(1.72881 -0.0478912 0)
(1.80562 -0.0442578 0)
(1.87791 -0.0409529 3.82277e-19)
(1.94602 -0.0379478 0)
(2.01026 -0.0352146 0)
(2.07094 -0.0327266 0)
(2.12832 -0.0304585 3.70103e-19)
(2.18265 -0.0283871 -3.67587e-19)
(2.23415 -0.0264926 0)
(2.28304 -0.0247572 0)
(2.32949 -0.0231647 -3.61078e-19)
(2.37367 -0.0217004 -3.59212e-19)
(2.41574 -0.0203517 0)
(2.45583 -0.019107 0)
(2.49407 -0.0179557 3.54386e-19)
(2.53057 -0.0168885 -3.53008e-19)
(2.56544 -0.015897 0)
(2.59876 -0.0149737 0)
(2.63063 -0.014112 -3.49474e-19)
(2.66111 -0.0133058 0)
(2.69027 -0.0125502 0)
(2.71819 -0.0118415 -3.46728e-19)
(2.74492 -0.0111757 0)
(2.77052 -0.0105487 -3.45275e-19)
(2.79503 -0.00995748 0)
(2.81851 -0.00939965 0)
(2.84101 -0.00887267 0)
(2.86255 -0.00837392 3.43157e-19)
(2.88318 -0.00790097 0)
(2.90294 -0.00745177 0)
(2.92185 -0.00702348 0)
(2.93993 -0.00661275 0)
(2.9572 -0.00621647 0)
(2.97365 -0.0058302 0)
(2.98929 -0.0054486 3.41684e-19)
(3.00408 -0.00506563 3.41718e-19)
(3.01799 -0.00467211 0)
(3.03092 -0.00425557 0)
(3.04275 -0.00380012 0)
(3.05327 -0.00328204 -3.4288e-19)
(3.06219 -0.00267203 0)
(3.06906 -0.00192496 6.89098e-19)
(3.07325 -0.000932266 -6.91409e-19)
(3.07347 0.000522511 -6.94791e-19)
(3.06753 0.00285323 6.99933e-19)
(3.05033 0.0071845 -7.08237e-19)
(3.01558 0.0165064 7.2273e-19)
(2.89457 0.0446614 0)
(0.010324 -0.0590423 0)
(0.0218145 -0.0596074 0)
(0.0282406 -0.0485103 2.3949e-19)
(0.0301794 -0.0336011 0)
(0.0270203 -0.016908 -1.93668e-19)
(0.0184022 0.000791108 -1.85012e-19)
(0.00516264 0.0184034 -8.84591e-20)
(-0.0123543 0.0349804 -8.23749e-20)
(-0.0334221 0.0497481 0)
(-0.0576755 0.062954 -6.82111e-20)
(-0.0845697 0.0746723 0)
(-0.113693 0.0846702 0)
(-0.144749 0.0928126 1.02627e-19)
(-0.177623 0.0993293 4.70757e-20)
(-0.212151 0.104486 -8.64173e-20)
(-0.248117 0.108493 -7.98138e-20)
(-0.285316 0.111527 -3.71129e-20)
(-0.323569 0.113741 0)
(-0.362721 0.11527 0)
(-0.40264 0.116235 0)
(-0.443213 0.116746 -2.84693e-20)
(-0.484323 0.116903 0)
(-0.525806 0.116814 7.6918e-20)
(-0.567555 0.116567 0)
(-0.609537 0.116163 0)
(-0.651731 0.115622 2.22685e-20)
(-0.694092 0.114977 0)
(-0.736575 0.114252 -2.0485e-20)
(-0.779149 0.113466 -3.92064e-20)
(-0.821787 0.112635 1.90057e-20)
(-0.864473 0.111773 0)
(-0.907194 0.110893 0)
(-0.94994 0.110002 0)
(-0.992707 0.10911 -3.32217e-20)
(-1.03549 0.108223 -3.22971e-20)
(-1.0783 0.107346 -1.58333e-20)
(-1.12112 0.106486 0)
(-1.16396 0.105645 3.01461e-20)
(-1.20684 0.104827 0)
(-1.24974 0.104035 -2.88381e-20)
(-1.29268 0.10327 0)
(-1.33567 0.102534 0)
(-1.37871 0.101828 2.72008e-20)
(-1.42181 0.101152 0)
(-1.46499 0.100506 7.84111e-20)
(-1.50825 0.0998901 -2.58755e-20)
(-1.5516 0.0993052 0)
(-1.59506 0.0987519 -2.51322e-20)
(-1.63863 0.0982306 -2.47967e-20)
(-1.68233 0.0977422 0)
(-1.72616 0.097287 0)
(-1.77015 0.0968652 0)
(-1.8143 0.0964769 0)
(-1.85862 0.0961221 0)
(-1.90312 0.095801 2.31911e-20)
(-1.94782 0.0955137 4.55143e-20)
(-1.99273 0.0952602 -2.27811e-20)
(-2.03785 0.0950403 0)
(-2.0832 0.0948537 4.43969e-20)
(-2.12878 0.0946993 -2.18133e-20)
(-2.17462 0.094576 0)
(-2.22071 0.0944822 -2.19525e-20)
(-2.26707 0.0944162 0)
(-2.31369 0.094376 0)
(-2.36059 0.0943589 -4.26738e-20)
(-2.40776 0.0943611 2.14332e-20)
(-2.4552 0.0943779 -4.22002e-20)
(-2.5029 0.0944035 4.19742e-20)
(-2.55086 0.0944304 2.10899e-20)
(-2.59906 0.0944494 0)
(-2.64747 0.0944495 2.08681e-20)
(-2.69607 0.0944175 0)
(-2.74482 0.0943377 0)
(-2.79366 0.0941919 0)
(-2.84254 0.0939583 2.00016e-20)
(-2.89138 0.0936115 0)
(-2.94008 0.0931219 3.9883e-20)
(-2.98853 0.092455 -5.95811e-20)
(-3.03659 0.0915715 -1.98234e-20)
(-3.08409 0.0904262 0)
(-3.13085 0.0889679 -1.94567e-20)
(-3.17663 0.0871377 0)
(-3.22115 0.084869 -3.80224e-20)
(-3.26411 0.0820863 0)
(-3.30513 0.0787056 -3.6924e-20)
(-3.3438 0.0746352 7.2184e-20)
(-3.37962 0.0697764 3.55576e-20)
(-3.41203 0.064023 0)
(-3.44038 0.0572583 0)
(-3.46398 0.0493465 0)
(-3.48208 0.0401311 -3.17074e-20)
(-3.49382 0.0294584 0)
(-3.49809 0.0172234 2.90449e-20)
(-3.49373 0.00341497 0)
(-3.47992 -0.0119141 -7.77094e-20)
(-3.45546 -0.0287594 -2.35717e-20)
(-3.41921 -0.0470935 -2.13541e-20)
(-3.37007 -0.0668049 0)
(-3.30702 -0.0876989 0)
(-3.22917 -0.109496 0)
(-3.13584 -0.131837 0)
(-3.02661 -0.154288 0)
(-2.9014 -0.176363 -1.03501e-20)
(-2.76047 -0.197545 -3.29009e-21)
(-2.60449 -0.217317 0)
(-2.43451 -0.235194 -7.91614e-21)
(-2.25196 -0.250753 -1.20581e-20)
(-2.05856 -0.263653 0)
(-1.85631 -0.273654 -3.69693e-20)
(-1.64735 -0.280623 0)
(-1.43389 -0.28453 2.51436e-20)
(-1.21812 -0.285445 0)
(-1.00211 -0.283547 0)
(-0.787792 -0.279175 -8.31527e-20)
(-0.576758 -0.272871 0)
(-0.370158 -0.265297 5.37013e-20)
(-0.168614 -0.256756 0)
(0.028816 -0.247225 0)
(0.215829 -0.235887 6.05228e-20)
(0.393982 -0.222479 6.58726e-20)
(0.562457 -0.208454 0)
(0.721724 -0.194635 -6.56094e-20)
(0.87198 -0.181274 0)
(1.0135 -0.168523 6.83396e-20)
(1.14664 -0.156473 1.41543e-19)
(1.2718 -0.145172 0)
(1.3894 -0.134636 0)
(1.4999 -0.12486 0)
(1.60375 -0.115824 0)
(1.70138 -0.107495 1.52376e-19)
(1.79324 -0.0998365 4.58399e-19)
(1.87972 -0.0928052 0)
(1.96124 -0.0863575 0)
(2.03815 -0.0804498 0)
(2.1108 -0.0750395 -1.59231e-19)
(2.17952 -0.0700848 0)
(2.2446 -0.0655457 0)
(2.30631 -0.0613844 3.24242e-19)
(2.36491 -0.0575648 1.62564e-19)
(2.42061 -0.0540537 1.65516e-19)
(2.47364 -0.0508216 0)
(2.52418 -0.0478417 0)
(2.57241 -0.0450894 1.69155e-19)
(2.61847 -0.0425422 -1.69111e-19)
(2.66251 -0.0401806 0)
(2.70466 -0.0379866 0)
(2.74504 -0.0359437 -1.73902e-19)
(2.78374 -0.0340374 5.24247e-19)
(2.82087 -0.0322547 0)
(2.85652 -0.0305845 0)
(2.89076 -0.0290167 1.78554e-19)
(2.92367 -0.0275424 0)
(2.95532 -0.026154 3.60973e-19)
(2.98577 -0.024845 -1.81303e-19)
(3.01507 -0.0236095 0)
(3.04329 -0.0224413 1.84264e-19)
(3.07048 -0.0213358 3.70203e-19)
(3.09668 -0.0202891 0)
(3.12194 -0.0192974 0)
(3.1463 -0.0183564 -1.88765e-19)
(3.16981 -0.0174614 0)
(3.19248 -0.0166077 3.81553e-19)
(3.21436 -0.01579 0)
(3.23546 -0.0150017 0)
(3.2558 -0.0142358 0)
(3.27539 -0.0134828 0)
(3.29422 -0.0127307 -1.96614e-19)
(3.31227 -0.0119648 -1.97762e-19)
(3.3295 -0.0111644 0)
(3.34584 -0.0103003 0)
(3.36117 -0.00933265 0)
(3.37529 -0.00820286 2.02715e-19)
(3.38793 -0.0068279 0)
(3.39862 -0.00508119 -4.11531e-19)
(3.40665 -0.00270227 4.14874e-19)
(3.4109 0.000807915 4.18746e-19)
(3.40956 0.00639144 4.23322e-19)
(3.39875 0.0163051 4.30937e-19)
(3.37633 0.0361138 4.40928e-19)
(3.31135 0.0833565 0)
(0.0022388 -0.0813708 0)
(0.00410128 -0.0680874 0)
(-0.000939492 -0.0443389 -1.87296e-19)
(-0.0105007 -0.018056 -1.55341e-19)
(-0.0245027 0.0089359 1.33965e-19)
(-0.0413663 0.0346383 1.1786e-19)
(-0.0607199 0.0583583 1.03666e-22)
(-0.0822317 0.0798906 0)
(-0.105703 0.0991774 0)
(-0.130974 0.116278 0)
(-0.157819 0.131236 0)
(-0.186054 0.144063 0)
(-0.215582 0.154815 -1.87695e-19)
(-0.246344 0.163644 0)
(-0.278259 0.170754 5.41667e-20)
(-0.31123 0.176356 5.06394e-20)
(-0.345157 0.180658 0)
(-0.379943 0.183853 0)
(-0.415498 0.186117 0)
(-0.451737 0.187611 0)
(-0.48858 0.188481 3.78784e-20)
(-0.525948 0.188852 0)
(-0.56375 0.188827 -3.43532e-20)
(-0.601903 0.188471 0)
(-0.640351 0.187835 0)
(-0.679056 0.186972 0)
(-0.71798 0.185932 -5.78256e-20)
(-0.757091 0.184756 0)
(-0.796361 0.183479 2.69479e-20)
(-0.835766 0.182128 -5.19431e-20)
(-0.875287 0.180725 0)
(-0.914909 0.17929 0)
(-0.95462 0.177838 0)
(-0.99441 0.176382 2.31334e-20)
(-1.03427 0.174933 2.25391e-20)
(-1.0742 0.173501 0)
(-1.1142 0.172091 0)
(-1.15426 0.17071 -4.18315e-20)
(-1.19438 0.169362 -4.09558e-20)
(-1.23457 0.168053 4.01434e-20)
(-1.27483 0.166784 0)
(-1.31515 0.165557 0)
(-1.35555 0.164375 0)
(-1.39603 0.163239 0)
(-1.4366 0.162148 -3.70684e-20)
(-1.47725 0.161104 -3.63485e-20)
(-1.51801 0.160108 3.58625e-20)
(-1.55886 0.159159 0)
(-1.59983 0.158257 0)
(-1.64091 0.157404 0)
(-1.68212 0.156598 0)
(-1.72346 0.155839 -3.38989e-20)
(-1.76494 0.155126 0)
(-1.80657 0.154461 0)
(-1.84835 0.153841 -3.30233e-20)
(-1.89029 0.153267 -3.29713e-20)
(-1.9324 0.152737 0)
(-1.97468 0.15225 6.46421e-20)
(-2.01713 0.151805 -3.23171e-20)
(-2.05977 0.151398 3.21281e-20)
(-2.10259 0.151027 0)
(-2.14559 0.150687 0)
(-2.18878 0.150376 0)
(-2.23214 0.150086 0)
(-2.27569 0.149814 3.13442e-20)
(-2.3194 0.149551 6.20386e-20)
(-2.36327 0.149287 3.10802e-20)
(-2.40727 0.149012 -3.09529e-20)
(-2.45141 0.148711 0)
(-2.49563 0.148369 6.10363e-20)
(-2.53992 0.147966 6.07841e-20)
(-2.58423 0.147479 6.05242e-20)
(-2.62851 0.146883 -6.02526e-20)
(-2.6727 0.146146 0)
(-2.71673 0.145234 -8.96455e-20)
(-2.76051 0.144104 0)
(-2.80394 0.142709 2.93344e-20)
(-2.84689 0.140995 2.94175e-20)
(-2.88922 0.138899 0)
(-2.93077 0.136349 0)
(-2.97134 0.133265 5.70849e-20)
(-3.01069 0.129555 0)
(-3.04856 0.125116 5.57982e-20)
(-3.08465 0.119832 0)
(-3.1186 0.113577 -5.41923e-20)
(-3.15002 0.106212 -1.06495e-19)
(-3.17844 0.0975847 0)
(-3.20333 0.0875364 0)
(-3.2241 0.0758934 0)
(-3.24012 0.0624632 -4.82405e-20)
(-3.25071 0.0470385 0)
(-3.25505 0.0294263 -4.48449e-20)
(-3.25206 0.00950616 0)
(-3.24105 -0.0127377 0)
(-3.22096 -0.0373111 7.5074e-20)
(-3.19075 -0.0642163 0)
(-3.14937 -0.093371 3.2171e-20)
(-3.09577 -0.12458 0)
(-3.029 -0.157525 2.54142e-20)
(-2.9482 -0.191753 0)
(-2.85269 -0.226687 0)
(-2.74202 -0.261628 0)
(-2.61607 -0.295795 2.50153e-20)
(-2.47505 -0.328355 2.20975e-21)
(-2.31956 -0.358477 0)
(-2.1506 -0.385388 0)
(-1.96956 -0.408419 0)
(-1.77816 -0.427047 0)
(-1.5784 -0.440922 2.39915e-20)
(-1.37241 -0.449883 -5.38749e-20)
(-1.1624 -0.453963 -3.50592e-20)
(-0.950511 -0.453393 7.60729e-20)
(-0.738792 -0.448615 8.72053e-20)
(-0.529057 -0.440314 5.17388e-20)
(-0.322744 -0.429363 0)
(-0.120904 -0.416169 1.20192e-19)
(0.0757477 -0.400654 0)
(0.263046 -0.383005 -1.34965e-19)
(0.440929 -0.363357 -7.23549e-20)
(0.609962 -0.342531 0)
(0.770212 -0.321468 1.50826e-19)
(0.921819 -0.300775 7.93202e-20)
(1.06498 -0.280786 0)
(1.19997 -0.261703 8.02828e-20)
(1.32712 -0.243646 -2.51895e-19)
(1.44681 -0.22668 0)
(1.55944 -0.210831 0)
(1.66542 -0.196092 0)
(1.76518 -0.182436 0)
(1.85913 -0.169821 -1.8234e-19)
(1.94768 -0.158193 -1.86726e-19)
(2.0312 -0.147492 0)
(2.11007 -0.137657 0)
(2.18462 -0.128624 0)
(2.25518 -0.120329 0)
(2.32205 -0.112712 0)
(2.38549 -0.105714 0)
(2.44576 -0.0992813 -2.02919e-19)
(2.5031 -0.0933611 -1.01602e-21)
(2.5577 -0.0879058 0)
(2.60977 -0.0828715 0)
(2.65948 -0.0782181 -2.1069e-19)
(2.70698 -0.0739091 0)
(2.75242 -0.0699115 2.15755e-19)
(2.79594 -0.0661956 2.17132e-19)
(2.83765 -0.0627345 0)
(2.87765 -0.0595042 0)
(2.91605 -0.0564834 -2.24049e-19)
(2.95294 -0.0536529 -4.51049e-19)
(2.9884 -0.0509958 0)
(3.0225 -0.0484976 0)
(3.05532 -0.0461451 0)
(3.08692 -0.0439267 -2.34199e-19)
(3.11736 -0.0418325 2.36205e-19)
(3.1467 -0.0398535 0)
(3.17499 -0.0379817 4.79589e-19)
(3.20229 -0.0362099 2.41418e-19)
(3.22863 -0.0345315 -4.87586e-19)
(3.25406 -0.0329402 0)
(3.27863 -0.0314296 0)
(3.30238 -0.0299924 -4.99478e-19)
(3.32532 -0.0286208 -2.52009e-19)
(3.3475 -0.0273066 0)
(3.36894 -0.0260396 0)
(3.38965 -0.0248082 0)
(3.40964 -0.023598 0)
(3.42892 -0.02239 -5.23152e-19)
(3.44745 -0.0211604 0)
(3.46521 -0.0198766 0)
(3.48212 -0.0184932 0)
(3.49808 -0.0169467 0)
(3.51291 -0.0151443 0)
(3.52637 -0.0129469 0)
(3.53806 -0.0101405 -5.54475e-19)
(3.54738 -0.00634406 0)
(3.55347 -0.000862921 0)
(3.5551 0.00757829 -1.15152e-18)
(3.5499 0.0216615 5.87801e-19)
(3.53873 0.0470318 -6.07105e-19)
(3.50782 0.0968288 6.35439e-19)
(-0.00648656 -0.0751625 0)
(-0.0142599 -0.0496456 4.35867e-19)
(-0.0286605 -0.0171806 0)
(-0.046539 0.0160078 1.1534e-19)
(-0.0658202 0.0471486 0)
(-0.0863332 0.0760287 0)
(-0.107993 0.102601 -7.46897e-20)
(-0.130746 0.126773 0)
(-0.154548 0.148483 0)
(-0.179346 0.167735 0)
(-0.205075 0.184582 0)
(-0.231682 0.199108 0)
(-0.259139 0.211434 1.81697e-19)
(-0.287427 0.221723 8.49034e-20)
(-0.316521 0.230164 -7.96551e-20)
(-0.346391 0.236959 0)
(-0.376995 0.242307 0)
(-0.408292 0.246402 0)
(-0.440232 0.24942 0)
(-0.472765 0.251524 0)
(-0.50584 0.252861 5.77848e-20)
(-0.539402 0.253558 5.52423e-20)
(-0.573397 0.253727 -5.29186e-20)
(-0.607772 0.25346 5.07917e-20)
(-0.642485 0.252832 0)
(-0.677498 0.25191 0)
(-0.712779 0.250751 4.54693e-20)
(-0.748298 0.249403 0)
(-0.784028 0.247909 0)
(-0.819946 0.246301 4.13014e-20)
(-0.856031 0.24461 4.0058e-20)
(-0.892266 0.242861 3.89663e-20)
(-0.928635 0.241074 0)
(-0.965126 0.239267 0)
(-1.00173 0.237456 -3.61549e-20)
(-1.03843 0.235652 0)
(-1.07523 0.233866 0)
(-1.11213 0.232106 3.39924e-20)
(-1.14911 0.23038 -3.31888e-20)
(-1.18617 0.228692 3.25892e-20)
(-1.22332 0.227047 0)
(-1.26055 0.225449 0)
(-1.29787 0.2239 6.22326e-20)
(-1.33527 0.222403 0)
(-1.37276 0.220959 6.05034e-20)
(-1.41034 0.219569 8.968e-20)
(-1.44802 0.218235 -8.85987e-20)
(-1.4858 0.216957 5.8336e-20)
(-1.52367 0.215736 0)
(-1.56166 0.214571 0)
(-1.59975 0.213462 5.65945e-20)
(-1.63796 0.212408 2.81377e-20)
(-1.67629 0.21141 0)
(-1.71474 0.210466 0)
(-1.75332 0.209575 2.74919e-20)
(-1.79203 0.208736 5.44344e-20)
(-1.83088 0.207947 0)
(-1.86986 0.207205 -5.39547e-20)
(-1.90898 0.206506 5.3483e-20)
(-1.94824 0.205847 -5.32112e-20)
(-1.98764 0.205223 0)
(-2.02718 0.204628 0)
(-2.06685 0.204056 0)
(-2.10665 0.203499 0)
(-2.14656 0.202948 0)
(-2.18658 0.20239 -5.20791e-20)
(-2.22669 0.201812 0)
(-2.26688 0.201197 0)
(-2.30711 0.200526 0)
(-2.34735 0.199776 -1.02572e-19)
(-2.38758 0.198919 -5.11709e-20)
(-2.42775 0.197924 -5.0977e-20)
(-2.4678 0.196755 1.01426e-19)
(-2.50767 0.195369 -5.04446e-20)
(-2.5473 0.193717 5.03099e-20)
(-2.58658 0.191743 0)
(-2.62541 0.189383 -4.97528e-20)
(-2.66369 0.186563 0)
(-2.70126 0.183198 0)