/*--------------------------------*- C++ -*----------------------------------*\
| =========                 |                                                 |
| \\      /  F ield         | OpenFOAM: The Open Source CFD Toolbox           |
|  \\    /   O peration     | Version:  1.4.2                                 |
|   \\  /    A nd           | Web:      http://www.openfoam.org               |
|    \\/     M anipulation  |                                                 |
\*---------------------------------------------------------------------------*/
FoamFile
{
    version     2.0;
    format      ascii;
    class       volScalarField;
    object      epsilon;
    location    "350";
}
// * * * * * * * * * * * * * * * * * * * * * * * * * * * * * * * * * * * * * //

dimensions      [0 2 -3 0 0 0 0];

internalField   nonuniform List<scalar> 
12225
(
443.026
353.451
290.583
245.341
212.182
187.584
169.232
155.556
145.466
138.187
133.157
129.956
128.268
127.846
128.493
130.045
132.371
135.63
60.1663
73.6165
79.5711
83.7013
87.7242
92.3686
97.9894
104.769
112.806
122.153
132.831
144.833
158.126
172.647
188.304
204.963
222.393
240.66
26.2965
33.7101
37.8446
40.684
42.9322
44.9575
46.9725
49.1056
51.4369
54.018
56.8819
60.0478
63.5237
67.3063
71.3786
75.7027
80.1986
84.7156
18.736
22.7247
25.4814
27.375
28.8164
30.0118
31.0726
32.0727
33.0616
34.0723
35.1266
36.2388
37.4167
38.6632
39.9758
41.3463
42.758
44.1703
16.1689
18.1648
19.9345
21.2935
22.3451
23.1842
23.8854
24.5026
25.0699
25.6087
26.1342
26.6568
27.1834
27.7182
28.2629
28.8172
29.3786
29.9297
15.2355
16.0873
17.0501
17.9394
18.6918
19.3137
19.8321
20.2727
20.6573
21.0027
21.3215
21.6224
21.9116
22.1931
22.4695
22.742
23.0106
23.2663
14.8943
15.1704
15.5874
16.054
16.5089
16.9251
17.2935
17.6138
17.8923
18.1369
18.3549
18.5524
18.7341
18.9038
19.064
19.2162
19.3604
19.4912
14.7876
14.8381
14.992
15.2102
15.4555
15.7035
15.9402
16.1584
16.3557
16.5327
16.6913
16.834
16.9633
17.0817
17.191
17.2927
17.3868
17.4687
14.7441
14.6885
14.7004
14.7666
14.8684
14.9897
15.1186
15.247
15.3701
15.4853
15.5917
15.6892
15.7783
15.8601
15.9353
16.0048
16.069
16.1251
14.7239
14.6133
14.5424
14.509
14.5064
14.5266
14.5623
14.6074
14.6572
14.7087
14.7597
14.8088
14.8553
14.899
14.9399
14.9782
15.0139
15.0458
14.715
14.5789
14.4656
14.3755
14.3073
14.2582
14.2247
14.2034
14.1914
14.1861
14.1854
14.1879
14.1925
14.1982
14.2046
14.2114
14.2183
14.2245
14.711
14.5641
14.4317
14.3138
14.2105
14.121
14.044
13.9781
13.9217
13.8733
13.8317
13.7957
13.7641
13.7364
13.7117
13.6895
13.6696
13.6516
14.709
14.5577
14.4175
14.2878
14.1685
14.0591
13.9593
13.8683
13.7854
13.71
13.6412
13.5784
13.5208
13.4679
13.4192
13.3742
13.3326
13.2945
14.7077
14.5545
14.4111
14.2769
14.1512
14.0337
13.9238
13.8212
13.7253
13.6358
13.5523
13.4742
13.4012
13.3329
13.2689
13.2088
13.1526
13.1007
14.7068
14.5524
14.4076
14.2716
14.1436
14.023
13.9093
13.8021
13.701
13.6056
13.5155
13.4304
13.35
13.274
13.2022
13.1342
13.07
13.0105
14.7061
14.5508
14.4053
14.2684
14.1394
14.0176
13.9026
13.7938
13.6908
13.5932
13.5007
13.413
13.3297
13.2507
13.1756
13.1043
13.0368
12.9739
14.7055
14.5498
14.4037
14.2663
14.1368
14.0145
13.8989
13.7895
13.6858
13.5875
13.4942
13.4056
13.3214
13.2414
13.1653
13.093
13.0244
12.9604
14.7054
14.5494
14.4032
14.2656
14.1359
14.0134
13.8976
13.788
13.6842
13.5857
13.4923
13.4036
13.3193
13.2393
13.1631
13.0908
13.0222
12.9582
14.7055
14.5497
14.4036
14.2662
14.1367
14.0145
13.899
13.7899
13.6865
13.5887
13.496
13.4081
13.3248
13.2458
13.1708
13.0997
13.0324
12.9698
14.7059
14.5507
14.4053
14.2687
14.1402
14.0194
13.9057
13.7986
13.6979
13.6029
13.5135
13.4292
13.3497
13.2747
13.2039
13.137
13.0741
13.0158
14.7067
14.5529
14.4095
14.2759
14.1516
14.0362
13.9292
13.83
13.738
13.6526
13.5734
13.4997
13.4311
13.3671
13.3072
13.2513
13.1989
13.1508
14.7086
14.5589
14.423
14.3005
14.1911
14.0939
14.0078
13.9315
13.8636
13.8029
13.7484
13.6991
13.6542
13.6129
13.5748
13.5394
13.5064
13.4762
14.7142
14.5803
14.471
14.3856
14.3212
14.2742
14.2407
14.2173
14.201
14.1895
14.181
14.1743
14.1685
14.1629
14.157
14.1508
14.1441
14.1373
14.7358
14.6588
14.6349
14.6532
14.7
14.7632
14.8338
14.9052
14.9735
15.0361
15.0919
15.1406
15.1821
15.2171
15.246
15.2696
15.2885
15.3037
14.8205
14.9296
15.1375
15.3937
15.6587
15.9103
16.1375
16.3357
16.5046
16.6468
16.7656
16.8644
16.9463
17.0141
17.0703
17.1168
17.1555
17.1878
15.1412
15.7849
16.5158
17.2049
17.794
18.2793
18.6725
18.9885
19.2418
19.4454
19.6099
19.744
19.8544
19.9463
20.0238
20.0902
20.1481
20.199
16.3186
18.2984
19.9606
21.2335
22.1802
22.8818
23.4049
23.8006
24.1059
24.3462
24.5397
24.6996
24.8358
24.9554
25.0638
25.1649
25.2618
25.3558
20.754
25.6362
28.6915
30.5983
31.8391
32.6623
33.2205
33.616
33.9139
34.1565
34.3711
34.5755
34.7814
34.9959
35.2235
35.4664
35.7254
35.9994
43.9605
54.4819
58.7065
60.4185
60.9725
60.9862
60.8406
60.7488
60.778
60.9574
61.2961
61.7923
62.4388
63.2253
64.1403
65.1713
66.3035
67.5294
332.627
280.253
240.732
210.194
186.156
166.945
151.392
138.661
128.139
119.373
112.02
105.816
100.554
96.0755
92.2499
88.9743
86.1654
83.7539
0.935402
1.28549
1.6606
2.01652
2.56149
3.3855
4.67939
6.8565
9.56289
12.8619
16.8683
21.76
27.8175
35.4713
42.6112
50.2203
58.4609
67.367
76.9545
87.2372
98.2295
109.946
122.403
135.616
149.603
164.382
179.972
196.394
213.669
231.821
250.873
270.853
291.788
313.709
336.647
360.638
385.718
411.929
439.313
467.915
497.787
528.979
561.549
595.555
631.06
668.132
706.838
747.251
789.446
833.497
879.483
927.481
977.567
1029.82
1084.3
1141.08
1200.21
1261.74
1325.71
1392.13
1461
1532.31
1605.99
1682
1760.24
1840.61
1923.02
2007.4
2093.75
2182.24
2272.5
2361.85
2449.39
2534.13
2615.01
2690.89
2760.65
2823.18
2877.44
2922.49
2957.54
2981.99
2995.45
2997.75
2988.95
2969.3
2939.3
2899.58
2850.94
2794.26
2730.52
2660.71
2585.84
2506.89
2424.81
2340.49
2254.75
2168.39
2082.11
1996.84
1913.47
1832.42
1756.36
1690.49
1631.72
1575.65
1521.28
1468.38
1416.93
1366.93
1318.4
1271.37
1225.83
1181.79
1139.24
1098.16
1058.54
1020.36
983.579
948.171
914.102
881.336
849.835
819.562
790.478
762.545
735.723
709.974
685.26
661.543
638.787
616.956
596.014
575.93
556.668
538.199
520.49
503.512
487.237
471.636
456.683
442.351
428.617
415.456
402.846
390.763
379.187
368.097
357.475
347.301
337.556
328.224
319.288
310.731
302.539
294.697
287.19
280.005
273.129
266.55
260.254
254.232
248.47
242.957
237.682
232.634
227.802
223.173
218.748
214.508
210.437
206.516
202.721
199.021
195.373
191.709
187.921
183.798
179.033
171.849
3.44673
3.03302
3.53987
4.66771
6.11781
7.94012
10.2189
13.0209
16.3483
20.1797
24.49
29.2606
34.4633
40.0335
45.8256
51.9051
58.3009
65.0224
72.0744
79.4618
87.1906
95.2673
103.699
112.495
121.662
131.211
141.15
151.49
162.242
173.415
185.022
197.074
209.585
222.565
236.031
249.995
264.472
279.479
295.031
311.147
327.842
345.137
363.049
381.598
400.803
420.685
441.262
462.554
484.579
507.353
530.892
555.209
580.314
606.213
632.91
660.403
688.684
717.74
747.553
778.096
809.337
841.238
873.756
906.841
940.444
974.515
1009
1043.87
1079.07
1114.58
1150.64
1186.17
1220.71
1253.88
1285.3
1314.57
1341.27
1365.01
1385.42
1402.17
1414.99
1423.66
1428.06
1428.12
1423.86
1415.39
1402.86
1386.51
1366.61
1343.48
1317.45
1288.9
1258.19
1225.68
1191.73
1156.67
1120.8
1084.42
1047.76
1011.01
974.339
937.431
902.048
868.753
837.367
807.287
778.239
750.111
722.86
696.465
670.915
646.202
622.315
599.244
576.978
555.502
534.802
514.861
495.66
477.181
459.404
442.309
425.875
410.083
394.911
380.338
366.344
352.91
340.014
327.637
315.761
304.366
293.435
282.949
272.892
263.247
253.998
245.129
236.625
228.473
220.657
213.165
205.983
199.1
192.502
186.179
180.119
174.312
168.748
163.416
158.307
153.412
148.723
144.231
139.927
135.805
131.857
128.076
124.454
120.987
117.666
114.487
111.443
108.53
105.74
103.071
100.515
98.0702
95.7406
93.5198
91.3991
89.3764
87.4504
85.622
83.897
82.2913
80.846
79.6691
79.0814
80.1135
8.0044
6.31836
7.13303
8.47156
10.2679
12.528
15.2619
18.4716
22.1406
26.2334
30.7098
35.5328
40.6689
46.0871
51.7648
57.7067
63.9191
70.4064
77.1724
84.2217
91.5591
99.1901
107.121
115.356
123.904
132.769
141.958
151.478
161.334
171.533
182.081
192.984
204.248
215.881
227.887
240.273
253.046
266.212
279.777
293.748
308.131
322.932
338.158
353.813
369.904
386.436
403.411
420.835
438.708
457.033
475.808
495.032
514.7
534.807
555.344
576.301
597.663
619.416
641.541
664.018
686.827
709.944
733.345
757.007
780.906
805.017
829.314
853.769
878.346
902.993
927.623
951.855
975.422
998.079
1019.56
1039.59
1057.88
1074.14
1088.08
1099.47
1108.08
1113.75
1116.36
1115.86
1112.25
1105.57
1095.95
1083.52
1068.49
1051.07
1031.52
1010.08
987.012
962.584
937.039
910.612
883.513
855.929
827.985
799.857
771.832
744.407
717.925
692.504
668.084
644.504
621.656
599.483
577.962
557.08
536.832
517.214
498.224
479.855
462.101
444.953
428.403
412.439
397.049
382.22
367.939
354.19
340.961
328.234
315.996
304.231
292.924
282.06
271.623
261.6
251.974
242.733
233.861
225.346
217.174
209.333
201.809
194.59
187.665
181.023
174.652
168.541
162.681
157.061
151.672
146.505
141.55
136.8
132.246
127.88
123.694
119.682
115.836
112.149
108.615
105.228
101.982
98.8705
95.8889
93.0316
90.2936
87.6701
85.1564
82.7482
80.4412
78.2313
76.1148
74.0882
72.1499
70.2986
68.5325
66.8486
65.2464
63.7281
62.3001
60.9772
59.793
58.8218
58.2437
58.4465
14.4852
10.1984
10.551
11.981
14.0152
16.5456
19.5344
22.9575
26.7883
30.9954
35.5471
40.4152
45.5774
51.0179
56.7282
62.7071
68.9564
75.4788
82.2776
89.3564
96.7194
104.371
112.315
120.555
129.097
137.943
147.097
156.562
166.341
176.436
186.85
197.584
208.639
220.016
231.715
243.738
256.083
268.749
281.736
295.043
308.667
322.606
336.857
351.416
366.281
381.446
396.907
412.657
428.691
445.002
461.581
478.421
495.513
512.846
530.412
548.199
566.197
584.396
602.786
621.359
640.106
659.021
678.101
697.341
716.741
736.298
756.007
775.862
795.845
815.942
836.025
855.909
875.418
894.362
912.523
929.653
945.486
959.743
972.149
982.446
990.406
995.842
998.616
998.644
995.901
990.414
982.265
971.579
958.522
943.294
926.116
907.223
886.854
865.244
842.62
819.188
795.134
770.632
745.76
721.029
696.629
672.719
649.441
626.863
604.986
583.767
563.166
543.158
523.73
504.874
486.587
468.865
451.704
435.098
419.043
403.53
388.55
374.095
360.153
346.713
333.763
321.291
309.283
297.727
286.609
275.916
265.635
255.751
246.253
237.127
228.359
219.939
211.852
204.088
196.633
189.478
182.61
176.019
169.693
163.624
157.801
152.215
146.855
141.714
136.783
132.053
127.517
123.166
118.993
114.992
111.155
107.475
103.946
100.563
97.319
94.2084
91.2261
88.3667
85.6253
82.9972
80.4777
78.0625
75.7475
73.5285
71.4018
69.3639
67.4112
65.5407
63.75
62.037
60.4013
58.8409
57.3556
55.947
54.6201
53.3862
52.2685
51.3134
50.6162
50.3199
20.5527
13.4334
13.4555
14.9447
17.1332
19.8254
22.951
26.4735
30.3662
34.6054
39.1701
44.0427
49.2102
54.6641
60.4002
66.4178
72.7182
79.3035
86.1768
93.3413
100.8
108.557
116.615
124.976
133.643
142.617
151.9
161.493
171.394
181.604
192.121
202.943
214.066
225.488
237.204
249.209
261.497
274.062
286.897
299.994
313.344
326.939
340.769
354.824
369.093
383.564
398.227
413.069
428.079
443.245
458.553
473.994
489.555
505.226
520.999
536.865
552.818
568.855
584.975
601.181
617.478
633.875
650.387
667.031
683.827
700.797
717.962
735.341
752.944
770.785
788.771
806.797
824.738
842.434
859.682
876.239
891.826
906.141
918.873
929.724
938.418
944.724
948.458
949.5
947.791
943.336
936.2
926.496
914.387
900.074
883.787
865.773
846.281
825.557
803.841
781.343
758.262
734.831
711.401
688.146
665.196
642.665
620.646
599.193
578.327
558.044
538.333
519.186
500.596
482.559
465.071
448.127
431.723
415.853
400.51
385.685
371.371
357.558
344.234
331.388
319.01
307.087
295.606
284.555
273.921
263.692
253.855
244.397
235.306
226.569
218.175
210.111
202.365
194.927
187.785
180.927
174.344
168.026
161.961
156.141
150.556
145.196
140.054
135.121
130.388
125.847
121.491
117.313
113.305
109.461
105.774
102.237
98.845
95.5917
92.4716
89.4793
86.6096
83.8575
81.2182
78.6873
76.2604
73.9332
71.7018
69.5625
67.5115
65.5455
63.6613
61.8559
60.1267
58.4717
56.8899
55.3802
53.9423
52.5773
51.2894
50.0871
48.9869
48.0189
47.2365
46.6968
25.2864
16.0177
15.7569
17.247
19.5082
22.277
25.4568
29.0034
32.892
37.1057
41.6324
46.4632
51.5921
57.016
62.7339
68.7466
75.0561
81.6651
88.5766
95.7938
103.32
111.157
119.307
127.773
136.556
145.655
155.07
164.799
174.841
185.192
195.848
206.803
218.052
229.588
241.401
253.484
265.826
278.417
291.244
304.294
317.555
331.011
344.648
358.451
372.402
386.487
400.687
414.987
429.369
443.818
458.319
472.857
487.419
501.994
516.574
531.153
545.73
560.305
574.886
589.484
604.118
618.812
633.597
648.51
663.593
678.895
694.465
710.352
726.6
743.245
760.255
777.575
795.117
812.745
830.262
847.416
863.898
879.361
893.439
905.767
916.002
923.847
929.06
931.471
930.984
927.578
921.314
912.292
900.678
886.693
870.594
852.661
833.17
812.395
790.63
768.085
745.221
722.184
699.178
676.359
653.846
631.735
610.102
588.993
568.434
548.435
528.997
510.119
491.797
474.029
456.81
440.134
423.996
408.388
393.304
378.733
364.667
351.094
338.004
325.386
313.227
301.516
290.239
279.385
268.941
258.893
249.231
239.94
231.009
222.426
214.179
206.256
198.645
191.335
184.316
177.576
171.106
164.894
158.932
153.21
147.718
142.448
137.391
132.538
127.882
123.415
119.129
115.017
111.072
107.288
103.658
100.175
96.8347
93.6302
90.5563
87.6077
84.7794
82.0664
79.4641
76.9681
74.5741
72.278
70.0759
67.9641
65.939
63.9974
62.1362
60.3524
58.6435
57.0074
55.4428
53.9489
52.5251
51.1725
49.8944
48.6972
47.5931
46.6023
45.7561
45.0786
28.9512
17.981
17.4436
18.8702
21.1255
23.894
27.0583
30.5678
34.3986
38.5387
42.982
47.7256
52.7686
58.1118
63.757
69.7068
75.9645
82.5337
89.4177
96.6203
104.144
111.992
120.167
128.668
137.497
146.653
156.135
165.939
176.062
186.499
197.243
208.289
219.626
231.246
243.137
255.287
267.684
280.313
293.158
306.203
319.431
332.823
346.36
360.022
373.789
387.64
401.555
415.512
429.492
443.473
457.439
471.37
485.253
499.075
512.826
526.501
540.1
553.626
567.093
580.518
593.93
607.364
620.867
634.495
648.314
662.398
676.828
691.688
707.06
723.015
739.584
756.763
774.503
792.692
811.142
829.582
847.666
864.988
881.103
895.561
907.932
917.832
924.951
929.06
930.015
927.756
922.38
913.947
902.627
888.679
872.394
854.111
834.152
812.798
790.591
767.815
744.719
721.505
698.368
675.448
652.859
630.691
609.007
587.85
567.245
547.204
527.732
508.83
490.495
472.723
455.509
438.846
422.728
407.146
392.091
377.553
363.521
349.985
336.933
324.353
312.233
300.559
289.32
278.503
268.094
258.081
248.452
239.193
230.293
221.74
213.521
205.625
198.039
190.754
183.758
177.04
170.59
164.398
158.454
152.749
147.273
142.018
136.975
132.135
127.491
123.035
118.759
114.657
110.72
106.944
103.32
99.8438
96.5085
93.3086
90.2385
87.2931
84.4673
81.7563
79.1554
76.6601
74.2663
71.97
69.7671
67.6541
65.6275
63.684
61.8205
60.0342
58.3226
56.6835
55.1156
53.6177
52.1895
50.8317
49.5468
48.3399
47.2201
46.201
45.3013
44.5314
31.4728
19.3339
18.5444
19.8549
22.0336
24.7316
27.817
31.2337
34.9576
38.979
43.2953
47.9069
52.8162
58.0265
63.5417
69.3661
75.5044
81.9611
88.7405
95.8469
103.284
111.054
119.16
127.602
136.382
145.497
154.946
164.727
174.833
185.259
195.998
207.042
218.381
230.003
241.895
254.045
266.436
279.052
291.875
304.886
318.065
331.391
344.841
358.393
372.023
385.707
399.421
413.14
426.84
440.498
454.092
467.601
481.006
494.293
507.449
520.467
533.345
546.088
558.708
571.227
583.677
596.105
608.567
621.137
633.901
646.963
660.435
674.443
689.11
704.564
720.901
738.178
756.397
775.48
795.252
815.427
835.61
855.32
874.016
891.139
906.15
918.56
927.979
934.115
936.778
935.786
931.191
923.147
911.907
897.808
881.148
862.379
841.963
820.232
797.575
774.308
750.703
727.001
703.448
680.152
657.234
634.775
612.833
591.445
570.63
550.4
530.755
511.696
493.219
475.317
457.986
441.217
425.001
409.33
394.193
379.579
365.477
351.876
338.762
326.124
313.949
302.223
290.934
280.07
269.615
259.559
249.888
240.59
231.651
223.06
214.805
206.874
199.254
191.936
184.908
178.159
171.679
165.457
159.485
153.751
148.248
142.966
137.897
133.032
128.363
123.882
119.583
115.457
111.498
107.698
104.053
100.554
97.1977
93.9766
90.8858
87.9199
85.0739
82.343
79.7224
77.2078
74.795
72.4798
70.2584
68.1271
66.0825
64.1214
62.2405
60.4373
58.709
57.0537
55.4698
53.9561
52.512
51.138
49.8362
48.6104
47.4673
46.4162
45.4679
44.6274
32.8563
20.1062
19.1096
20.2701
22.3158
24.8837
27.8345
31.1083
34.6798
38.5397
42.6862
47.1214
51.8491
56.874
62.2015
67.8372
73.7869
80.0562
86.6505
93.5746
100.833
108.429
116.365
124.643
133.264
142.226
151.529
161.167
171.138
181.434
192.049
202.974
214.197
225.707
237.492
249.535
261.82
274.331
287.047
299.948
313.012
326.217
339.538
352.95
366.427
379.942
393.47
406.981
420.45
433.849
447.154
460.339
473.383
486.266
498.972
511.489
523.811
535.941
547.887
559.669
571.321
582.889
594.438
606.053
617.84
629.926
642.462
655.616
669.567
684.507
700.614
718.023
736.804
756.932
778.255
800.471
823.13
845.656
867.391
887.644
905.746
921.064
933.15
941.432
945.655
945.731
941.781
934.026
922.78
908.544
891.71
872.727
852.025
829.989
806.984
783.327
759.299
735.143
711.079
687.287
663.946
641.118
618.856
597.188
576.124
555.669
535.82
516.572
497.92
479.857
462.373
445.461
429.11
413.31
398.051
383.321
369.108
355.4
342.184
329.447
317.177
305.36
293.982
283.032
272.495
262.359
252.61
243.236
234.224
225.562
217.238
209.24
201.557
194.176
187.086
180.278
173.741
167.464
161.437
155.651
150.097
144.766
139.648
134.736
130.021
125.496
121.154
116.986
112.985
109.146
105.462
101.925
98.5317
95.2745
92.1483
89.148
86.2684
83.5045
80.8518
78.3058
75.8623
73.5171
71.2663
69.1064
67.0338
65.0453
63.1379
61.3086
59.5552
57.8754
56.2675
54.7302
53.2628
51.8657
50.5403
49.2896
48.1182
47.0323
46.0381
45.1382
33.1843
20.3503
19.2051
20.2009
22.075
24.4681
27.2398
30.3289
33.7082
37.3672
41.3037
45.5196
50.0191
54.8077
59.8916
65.2772
70.9713
76.9802
83.3102
89.967
96.9558
104.281
111.945
119.952
128.301
136.994
146.028
155.401
165.109
175.146
185.506
196.179
207.155
218.422
229.968
241.778
253.834
266.119
278.612
291.294
304.142
317.131
330.236
343.432
356.691
369.984
383.284
396.559
409.782
422.922
435.952
448.842
461.568
474.105
486.432
498.533
510.395
522.015
533.395
544.549
555.504
566.305
577.014
587.721
598.543
609.631
621.169
633.374
646.49
660.791
676.55
694
713.305
734.518
757.523
782.001
807.433
833.129
858.284
882.061
903.648
922.129
936.698
946.893
952.509
953.519
950.159
942.774
931.778
917.651
900.856
881.851
861.072
838.916
815.748
791.888
767.62
743.191
718.815
694.68
670.952
647.785
625.245
603.346
582.084
561.453
541.444
522.048
503.256
485.059
467.447
450.412
433.941
418.025
402.652
387.811
373.49
359.675
346.355
333.516
321.146
309.23
297.757
286.712
276.083
265.857
256.02
246.56
237.464
228.72
220.315
212.239
204.479
197.023
189.861
182.982
176.376
170.032
163.939
158.09
152.474
147.082
141.906
136.936
132.166
127.587
123.191
118.971
114.921
111.033
107.301
103.718
100.279
96.9772
93.8079
90.7654
87.8447
85.0407
82.3488
79.7646
77.2836
74.9019
72.6156
70.4209
68.3144
66.2929
64.3532
62.4926
60.7086
58.9992
57.3623
55.7966
54.3012
52.8764
51.523
50.2432
49.0403
47.9179
46.8794
45.9266
32.5686
20.1338
18.9077
19.743
21.4265
23.6171
26.1795
29.0526
32.2077
35.6326
39.3234
43.2815
47.5106
52.0165
56.8055
61.8847
67.2613
72.9423
78.9348
85.2451
91.8791
98.842
106.138
113.77
121.74
130.05
138.698
147.683
157.003
166.651
176.622
186.909
197.501
208.389
219.559
230.996
242.686
254.61
266.749
279.083
291.588
304.241
317.017
329.889
342.829
355.807
368.795
381.761
394.674
407.504
420.218
432.786
445.179
457.368
469.329
481.039
492.481
503.642
514.517
525.113
535.446
545.551
555.48
565.319
575.188
585.251
595.723
606.874
619.018
632.531
647.793
665.156
684.909
707.21
732
758.922
787.369
816.504
845.349
872.906
897.978
919.287
936.028
947.864
954.693
956.635
953.983
947.141
936.573
922.776
906.241
887.443
866.824
844.792
821.712
797.906
773.658
749.215
724.79
700.569
676.714
653.374
630.685
608.682
587.342
566.647
546.579
527.127
508.279
490.024
472.352
455.252
438.715
422.731
407.287
392.372
377.975
364.083
350.684
337.766
325.315
313.318
301.763
290.637
279.926
269.619
259.701
250.161
240.986
232.164
223.682
215.53
207.695
200.165
192.931
185.981
179.305
172.893
166.734
160.819
155.139
149.684
144.446
139.417
134.588
129.952
125.5
121.226
117.122
113.182
109.399
105.766
102.279
98.9296
95.7139
92.626
89.6609
86.8136
84.0793
81.4536
78.9322
76.5109
74.1859
71.9534
69.81
67.7524
65.7776
63.8827
62.0654
60.3234
58.6545
57.0574
55.5312
54.0758
52.6917
51.3804
50.1438
48.9842
47.9028
46.9013
31.1057
19.5303
18.3011
18.9975
20.4912
22.4699
24.8079
27.4459
30.3547
33.5204
36.9378
40.607
44.5314
48.7162
53.1677
57.8932
62.9001
68.1959
73.788
79.6834
85.8886
92.4096
99.2513
106.418
113.913
121.737
129.893
138.378
147.192
156.331
165.79
175.562
185.64
196.013
206.671
217.6
228.786
240.211
251.858
263.707
275.735
287.921
300.238
312.66
325.16
337.708
350.275
362.829
375.338
387.769
400.09
412.269
424.273
436.071
447.635
458.937
469.956
480.672
491.074
501.159
510.936
520.424
529.66
538.712
547.693
556.772
566.19
576.27
587.397
600.074
614.789
632.027
652.22
675.678
702.433
731.999
763.661
796.398
829.03
859.969
887.764
911.294
929.847
943.105
951.049
953.88
951.954
945.725
935.699
922.393
906.318
887.957
867.757
846.125
823.423
799.971
776.05
751.9
727.733
703.729
680.048
656.831
634.212
612.3
591.058
570.456
550.473
531.094
512.306
494.098
476.462
459.387
442.864
426.882
411.433
396.505
382.087
368.167
354.735
341.777
329.283
317.239
305.633
294.454
283.687
273.321
263.344
253.742
244.505
235.62
227.075
218.859
210.96
203.368
196.07
189.058
182.319
175.845
169.625
163.65
157.911
152.398
147.102
142.017
137.132
132.441
127.935
123.608
119.453
115.462
111.629
107.947
104.411
101.015
97.7534
94.6202
91.6108
88.7199
85.943
83.2755
80.7132
78.2518
75.8874
73.6164
71.4353
69.3409
67.3299
65.3998
63.548
61.7721
60.07
58.4401
56.8816
55.3942
53.978
52.6338
51.3628
50.1658
49.0429
47.9962
28.947
18.6384
17.4799
18.0697
19.3908
21.1644
23.2771
25.6739
28.3261
31.2192
34.347
37.7085
41.3062
45.1448
49.2303
53.5696
58.17
63.0393
68.185
73.6145
79.3348
85.3524
91.6732
98.3021
105.243
112.5
120.074
127.966
136.176
144.701
153.539
162.684
172.131
181.87
191.893
202.188
212.741
223.538
234.561
245.793
257.212
268.798
280.525
292.369
304.302
316.296
328.322
340.348
352.342
364.272
376.104
387.805
399.341
410.68
421.79
432.643
443.211
453.474
463.415
473.028
482.316
491.301
499.984
508.409
516.672
524.938
533.47
542.671
552.988
565.062
579.477
596.849
617.743
642.538
671.265
703.469
738.265
774.441
810.233
843.821
873.722
898.878
918.67
932.87
941.554
945.005
943.641
937.96
928.494
915.775
900.317
882.601
863.065
842.108
820.08
797.292
774.013
750.476
726.884
703.412
680.213
657.426
635.176
613.592
592.656
572.333
552.6
533.443
514.852
496.816
479.329
462.383
445.969
430.08
414.706
399.839
385.468
371.584
358.177
345.234
332.746
320.7
309.086
297.891
287.103
276.712
266.705
257.071
247.797
238.873
230.287
222.028
214.084
206.445
199.101
192.04
185.253
178.73
172.461
166.436
160.647
155.085
149.74
144.606
139.672
134.933
130.38
126.006
121.803
117.766
113.887
110.161
106.581
103.141
99.8362
96.6606
93.6093
90.6773
87.8599
85.1525
82.5509
80.0508
77.6485
75.3402
73.1224
70.9919
68.9456
66.9807
65.0948
63.2851
61.5496
59.8869
58.296
56.7763
55.3277
53.9504
52.6449
51.4112
50.2486
49.1597
26.5425
17.6183
16.5651
17.0735
18.2418
19.8223
21.7147
23.8698
26.261
28.8742
31.7027
34.7446
38.0016
41.4773
45.1771
49.1074
53.2752
57.6878
62.3529
67.2778
72.4699
77.9362
83.6831
89.7164
96.0411
102.662
109.581
116.801
124.324
132.148
140.273
148.694
157.409
166.409
175.689
185.237
195.044
205.096
215.377
225.872
236.562
247.427
258.444
269.589
280.838
292.162
303.533
314.921
326.295
337.623
348.871
360.006
370.996
381.806
392.406
402.765
412.855
422.654
432.144
441.315
450.171
458.723
466.968
474.945
482.746
490.536
498.591
507.333
517.32
529.297
543.942
561.991
584.123
610.77
641.921
676.995
714.904
753.949
792.014
827.222
858.151
883.879
903.947
918.27
927.037
930.613
929.47
924.133
915.14
903.018
888.265
871.343
852.67
832.62
811.524
789.673
767.321
744.687
721.963
699.314
676.887
654.814
633.219
612.22
591.806
571.95
552.636
533.856
515.601
497.867
480.649
463.942
447.74
432.038
416.828
402.103
387.857
374.079
360.762
347.895
335.469
323.475
311.9
300.736
289.971
279.594
269.595
259.961
250.684
241.75
233.151
224.874
216.91
209.247
201.877
194.788
187.971
181.415
175.113
169.054
163.229
157.631
152.249
147.077
142.106
137.328
132.737
128.324
124.083
120.007
116.09
112.326
108.707
105.23
101.887
98.6739
95.5855
92.6167
89.7628
87.0193
84.3819
81.8465
79.4091
77.0662
74.8142
72.65
70.5703
68.5726
66.6538
64.8116
63.044
61.3495
59.7271
58.1759
56.6956
55.2859
53.9469
52.6779
51.4777
50.3495
23.7982
16.453
15.5705
16.0328
17.0735
18.4783
20.1614
22.0809
24.2137
26.547
29.0742
31.7929
34.7038
37.8097
41.1149
44.6249
48.346
52.2852
56.4495
60.8464
65.4832
70.3671
75.5049
80.9031
86.5676
92.5038
98.7159
105.208
111.982
119.039
126.381
134.005
141.909
150.09
158.542
167.257
176.228
185.442
194.888
204.551
214.415
224.463
234.673
245.025
255.494
266.056
276.683
287.347
298.019
308.667
319.26
329.767
340.153
350.39
360.444
370.288
379.895
389.244
398.317
407.105
415.606
423.831
431.803
439.576
447.256
455.023
463.166
472.08
482.566
495.321
511.152
530.909
555.334
584.816
619.147
657.427
698.19
739.159
778.155
813.429
843.796
868.603
887.633
900.982
908.959
911.997
910.598
905.285
896.575
884.966
870.918
854.856
837.159
818.169
798.185
777.473
756.263
734.757
713.131
691.54
670.123
649.005
628.306
608.109
588.405
569.183
550.441
532.177
514.39
497.08
480.244
463.883
447.992
432.57
417.612
403.113
389.067
375.468
362.309
349.582
337.279
325.392
313.911
302.827
292.13
281.811
271.86
262.266
253.02
244.112
235.531
227.267
219.31
211.65
204.278
197.184
190.359
183.792
177.476
171.4
165.558
159.939
154.535
149.34
144.344
139.541
134.923
130.483
126.214
122.11
118.164
114.37
110.721
107.214
103.841
100.597
97.4779
94.4784
91.5938
88.8195
86.1513
83.5852
81.1173
78.7439
76.4615
74.267
72.1573
70.1293
68.1803
66.308
64.5105
62.7864
61.1343
59.5533
58.0429
56.6024
55.2315
53.9292
52.694
51.5294
20.8722
15.1527
14.5012
14.9548
15.8951
17.1454
18.6359
20.3327
22.2173
24.2789
26.5116
28.9129
31.4828
34.2229
37.1366
40.2284
43.5036
46.9684
50.6293
54.4933
58.5677
62.8595
67.3761
72.1242
77.1106
82.3415
87.8224
93.5583
99.5532
105.81
112.332
119.119
126.172
133.488
141.065
148.897
156.98
165.304
173.86
182.637
191.62
200.795
210.144
219.648
229.287
239.036
248.872
258.769
268.699
278.634
288.545
298.402
308.175
317.836
327.357
336.712
345.88
354.843
363.59
372.119
380.438
388.571
396.563
404.494
412.495
420.783
429.683
439.691
451.685
466.431
484.839
507.836
536.111
569.787
608.189
649.875
692.57
733.869
771.809
805.055
832.877
855.013
871.537
882.726
888.987
890.784
888.608
882.946
874.266
863.009
849.58
834.347
817.643
799.764
780.973
761.501
741.553
721.307
700.924
680.545
660.301
640.305
620.669
601.412
582.548
564.087
546.036
528.401
511.189
494.404
478.049
462.126
446.636
431.578
416.952
402.755
388.983
375.632
362.697
350.172
338.051
326.327
314.992
304.039
293.458
283.242
273.382
263.869
254.693
245.845
237.317
229.098
221.179
213.551
206.205
199.132
192.323
185.768
179.459
173.388
167.547
161.926
156.519
151.317
146.312
141.498
136.868
132.414
128.129
124.008
120.044
116.231
112.563
109.034
105.64
102.375
99.2328
96.2101
93.3019
90.5036
87.8111
85.2202
82.7273
80.3286
78.0208
75.8006
73.6647
71.6103
69.6347
67.7359
65.9119
64.161
62.482
60.8738
59.3356
57.8667
56.4662
55.1332
53.8658
52.6681
17.9679
13.7489
13.364
13.8428
14.7112
15.8328
17.1542
18.65
20.3063
22.1149
24.071
26.1723
28.4182
30.8099
33.3495
36.0408
38.8881
41.8966
45.0725
48.4221
51.9523
55.6702
59.5831
63.6984
68.0231
72.5644
77.3289
82.3227
87.5514
93.02
98.7326
104.692
110.901
117.359
124.067
131.023
138.222
145.661
153.331
161.225
169.332
177.639
186.133
194.797
203.613
212.562
221.621
230.769
239.981
249.231
258.494
267.744
276.955
286.102
295.165
304.122
312.96
321.67
330.253
338.722
347.103
355.445
363.825
372.361
381.236
390.724
401.21
413.511
428.373
446.712
469.547
497.787
531.801
571.016
613.943
658.02
700.642
739.742
774.017
802.847
826.097
843.929
856.667
864.714
868.508
868.492
865.104
858.761
849.856
838.758
825.801
811.292
795.507
778.693
761.071
742.837
724.167
705.214
686.122
667.019
648.026
629.238
610.696
592.434
574.479
556.85
539.565
522.636
506.075
489.891
474.091
458.679
443.661
429.038
414.812
400.982
387.547
374.506
361.854
349.589
337.705
326.197
315.059
304.284
293.867
283.798
274.072
264.679
255.612
246.862
238.421
230.28
222.432
214.866
207.575
200.55
193.783
187.265
180.988
174.944
169.125
163.523
158.13
152.94
147.944
143.136
138.508
134.055
129.769
125.645
121.675
117.856
114.179
110.641
107.235
103.958
100.803
97.7657
94.8421
92.0277
89.3183
86.7098
84.1985
81.7808
79.4534
77.2127
75.0557
72.9798
70.9824
69.0615
67.215
65.4412
63.7389
62.1067
60.5438
59.0493
57.6222
56.2614
54.9652
53.7376
15.2342
12.2767
12.1663
12.7012
13.532
14.5602
15.748
17.078
18.5407
20.1304
21.8437
23.679
25.6358
27.715
29.9184
32.249
34.7107
37.3083
40.0471
42.9332
45.9732
49.1741
52.5432
56.088
59.8163
63.7356
67.8535
72.1773
76.7139
81.4697
86.4505
91.6613
97.1063
102.789
108.71
114.871
121.272
127.909
134.779
141.876
149.193
156.721
164.448
172.362
180.448
188.689
197.068
205.565
214.16
222.833
231.561
240.325
249.103
257.878
266.636
275.367
284.067
292.743
301.412
310.11
318.894
327.848
337.099
346.828
357.307
368.919
382.354
398.356
417.83
441.858
471.459
507.247
548.654
593.622
639.213
682.515
721.439
754.922
782.702
804.972
822.119
834.586
842.809
847.203
848.157
846.042
841.204
833.974
824.661
813.553
800.916
786.992
772