/*--------------------------------*- C++ -*----------------------------------*\
| =========                 |                                                 |
| \\      /  F ield         | OpenFOAM: The Open Source CFD Toolbox           |
|  \\    /   O peration     | Version:  1.4.2                                 |
|   \\  /    A nd           | Web:      http://www.openfoam.org               |
|    \\/     M anipulation  |                                                 |
\*---------------------------------------------------------------------------*/
FoamFile
{
    version     2.0;
    format      ascii;
    class       volScalarField;
    object      k;
    location    "350";
}
// * * * * * * * * * * * * * * * * * * * * * * * * * * * * * * * * * * * * * //

dimensions      [0 2 -2 0 0 0 0];

internalField   nonuniform List<scalar> 
12225
(
0.315115
0.271063
0.237883
0.212502
0.192896
0.177684
0.165897
0.156834
0.149977
0.144931
0.141392
0.139118
0.137911
0.137608
0.138071
0.139181
0.140836
0.143138
0.365357
0.357609
0.353825
0.353682
0.35673
0.362607
0.370989
0.381581
0.394114
0.408339
0.42402
0.440928
0.45884
0.477539
0.496809
0.516431
0.536111
0.556403
0.370187
0.364635
0.360182
0.356896
0.354766
0.353739
0.353744
0.354699
0.35652
0.359126
0.362436
0.36637
0.370851
0.375795
0.381109
0.386677
0.392324
0.39792
0.371734
0.367475
0.363485
0.359994
0.357013
0.354542
0.352571
0.351069
0.350002
0.349331
0.349017
0.349021
0.349306
0.349832
0.350556
0.351429
0.352395
0.353422
0.372437
0.369046
0.365585
0.362322
0.359328
0.356623
0.354209
0.352073
0.3502
0.348573
0.347171
0.345974
0.34496
0.344106
0.343391
0.342791
0.342283
0.341859
0.372749
0.36994
0.366986
0.364051
0.361239
0.358597
0.35614
0.35387
0.351782
0.349867
0.348115
0.346512
0.345048
0.343709
0.342482
0.341355
0.340318
0.339376
0.372878
0.370407
0.367848
0.365259
0.362709
0.360241
0.357882
0.35565
0.353549
0.351579
0.349733
0.348007
0.346393
0.344883
0.343468
0.342143
0.340902
0.33976
0.372918
0.370596
0.368252
0.365896
0.363562
0.361276
0.359062
0.356934
0.354903
0.352972
0.351142
0.349411
0.347776
0.346231
0.34477
0.34339
0.342089
0.340884
0.372932
0.370685
0.368468
0.366267
0.364095
0.361963
0.359886
0.357874
0.355935
0.354076
0.352299
0.350604
0.34899
0.347454
0.345994
0.344605
0.343287
0.342062
0.372936
0.370728
0.36859
0.366501
0.364458
0.362463
0.360518
0.35863
0.356803
0.355041
0.353346
0.351719
0.350161
0.348669
0.347242
0.345878
0.344578
0.343362
0.372936
0.370744
0.368648
0.366627
0.364672
0.362779
0.360944
0.359166
0.357447
0.355786
0.354185
0.352643
0.351161
0.349736
0.348368
0.347055
0.345799
0.34462
0.372935
0.370746
0.368666
0.36668
0.364776
0.362947
0.361187
0.359491
0.357858
0.356284
0.354768
0.353309
0.351904
0.350553
0.349253
0.348003
0.346806
0.345681
0.372935
0.370744
0.368668
0.366693
0.364811
0.363015
0.361297
0.359651
0.358074
0.35656
0.355107
0.353712
0.352371
0.351083
0.349845
0.348656
0.347518
0.346448
0.372936
0.370741
0.368663
0.36669
0.364815
0.36303
0.361329
0.359707
0.358158
0.356677
0.355261
0.353905
0.352607
0.351362
0.350169
0.349025
0.347933
0.346907
0.372938
0.370741
0.36866
0.366684
0.364808
0.363025
0.361329
0.359714
0.358175
0.356707
0.355307
0.353969
0.352691
0.35147
0.350302
0.349185
0.34812
0.347123
0.372942
0.370743
0.368659
0.366681
0.364803
0.363018
0.36132
0.359705
0.358168
0.356703
0.355306
0.353975
0.352704
0.351491
0.350333
0.349228
0.348176
0.347192
0.372947
0.370747
0.368661
0.366681
0.364801
0.363014
0.361314
0.359697
0.358158
0.356693
0.355296
0.353964
0.352694
0.351483
0.350327
0.349225
0.348176
0.347197
0.372951
0.370752
0.368665
0.366683
0.364801
0.363013
0.361312
0.359694
0.358153
0.356685
0.355287
0.353954
0.352683
0.35147
0.350312
0.349208
0.348159
0.347178
0.372949
0.370749
0.368663
0.366682
0.3648
0.363011
0.361309
0.359689
0.358146
0.356675
0.355274
0.353936
0.35266
0.351441
0.350277
0.349167
0.34811
0.347121
0.372944
0.370744
0.368659
0.366678
0.364795
0.363004
0.361298
0.359672
0.358121
0.356641
0.355227
0.353876
0.352584
0.351348
0.350166
0.349035
0.347958
0.346948
0.372939
0.37074
0.368654
0.366669
0.364779
0.362976
0.361254
0.359607
0.358031
0.35652
0.355073
0.353684
0.352352
0.351075
0.349849
0.348673
0.34755
0.346495
0.372935
0.370733
0.368638
0.366637
0.364719
0.362878
0.361107
0.359403
0.357761
0.35618
0.354657
0.35319
0.351778
0.35042
0.349113
0.347859
0.346658
0.345529
0.372928
0.370712
0.368583
0.366525
0.364529
0.362591
0.360709
0.358882
0.357112
0.355399
0.353744
0.352148
0.35061
0.34913
0.347709
0.346345
0.345042
0.343818
0.37291
0.370641
0.368412
0.36621
0.364039
0.361906
0.359818
0.357784
0.355812
0.353906
0.352069
0.350305
0.348612
0.346992
0.345443
0.343965
0.342558
0.341243
0.372856
0.370431
0.367961
0.365463
0.362973
0.360522
0.358131
0.355818
0.353594
0.351466
0.349435
0.347502
0.345664
0.34392
0.342266
0.340699
0.339219
0.337842
0.372694
0.369886
0.366929
0.363926
0.360967
0.358098
0.355348
0.352732
0.350256
0.347922
0.345727
0.343666
0.341735
0.339925
0.338232
0.336648
0.33517
0.333809
0.372231
0.368601
0.36482
0.3611
0.357542
0.35419
0.351064
0.34817
0.345502
0.343054
0.340813
0.338768
0.336906
0.335212
0.333675
0.33228
0.331018
0.32989
0.370947
0.365686
0.360551
0.355802
0.351492
0.347647
0.344269
0.341338
0.338822
0.336686
0.334895
0.333416
0.332217
0.331267
0.330541
0.330012
0.329658
0.329467
0.366354
0.35712
0.349252
0.342901
0.337991
0.334398
0.331971
0.330558
0.330019
0.33023
0.331086
0.332493
0.334372
0.336653
0.339274
0.342181
0.345321
0.348689
0.329178
0.293648
0.265348
0.242404
0.223551
0.207894
0.194773
0.183694
0.17428
0.166238
0.15934
0.1534
0.148272
0.143836
0.139992
0.136658
0.133767
0.131259
0.011579
0.0149923
0.0177837
0.0202486
0.0237022
0.0284889
0.0352653
0.0453721
0.0566868
0.069093
0.0828037
0.0981406
0.115609
0.13595
0.153644
0.171432
0.1897
0.208491
0.227806
0.24764
0.267987
0.288844
0.310209
0.332081
0.35446
0.377347
0.400745
0.424656
0.449086
0.47404
0.499525
0.525549
0.552122
0.579255
0.606961
0.635253
0.664148
0.693661
0.723813
0.754624
0.786116
0.818312
0.851238
0.88492
0.919385
0.954663
0.990782
1.02777
1.06566
1.10448
1.14425
1.185
1.22676
1.26954
1.31337
1.35823
1.40415
1.45112
1.49911
1.54811
1.59808
1.64896
1.7007
1.75322
1.80644
1.86027
1.91461
1.96941
2.02464
2.08036
2.13668
2.19172
2.24496
2.2959
2.34397
2.38862
2.42928
2.46539
2.49647
2.52205
2.54176
2.55533
2.56256
2.56338
2.55783
2.54603
2.52821
2.50468
2.47583
2.44209
2.40393
2.36185
2.31635
2.26794
2.21709
2.1643
2.11
2.05462
1.99859
1.94247
1.88672
1.83179
1.77922
1.73254
1.6908
1.65061
1.61125
1.57253
1.53445
1.49703
1.4603
1.42428
1.389
1.35449
1.32076
1.28781
1.25566
1.22431
1.19375
1.16399
1.13502
1.10682
1.0794
1.05274
1.02682
1.00164
0.977182
0.953429
0.930368
0.907983
0.886259
0.865181
0.844733
0.824901
0.805669
0.787023
0.768947
0.751427
0.734449
0.717999
0.702062
0.686625
0.671675
0.657198
0.643182
0.629614
0.616483
0.603776
0.591482
0.579589
0.568086
0.556963
0.546208
0.535812
0.525763
0.516053
0.506671
0.497609
0.488858
0.480407
0.472249
0.464374
0.456774
0.449438
0.442358
0.435524
0.428926
0.422552
0.416405
0.410466
0.404719
0.39914
0.393702
0.388365
0.383075
0.377742
0.372225
0.366237
0.359362
0.349177
0.0173994
0.03059
0.0420792
0.0549816
0.0675617
0.080907
0.0959001
0.112987
0.13215
0.153061
0.175386
0.198898
0.223422
0.248747
0.274528
0.300939
0.328048
0.355874
0.384425
0.413707
0.443724
0.474483
0.505987
0.538241
0.571252
0.605024
0.639562
0.674875
0.710968
0.747851
0.785532
0.824025
0.863341
0.903497
0.944509
0.986399
1.02919
1.07291
1.11758
1.16325
1.20995
1.25771
1.3066
1.35665
1.40793
1.4605
1.51441
1.56975
1.62658
1.68499
1.74505
1.80685
1.87049
1.93605
2.00363
2.07331
2.14519
2.21935
2.29588
2.37484
2.45631
2.54031
2.62688
2.71603
2.80773
2.90192
2.99849
3.09729
3.19813
3.30075
3.40371
3.50668
3.60903
3.70992
3.80839
3.90338
3.9937
4.07814
4.15548
4.22452
4.28419
4.33352
4.37175
4.39832
4.41292
4.41547
4.40613
4.38527
4.35344
4.31135
4.25981
4.19971
4.13201
4.05766
3.9776
3.89279
3.80414
3.71254
3.61885
3.5243
3.42989
3.33612
3.24665
3.16123
3.07852
2.9974
2.91753
2.83889
2.76157
2.68567
2.6113
2.53854
2.46745
2.39808
2.33046
2.26462
2.20056
2.13826
2.07773
2.01895
1.96188
1.9065
1.85278
1.80068
1.75017
1.70122
1.65377
1.6078
1.56327
1.52013
1.47835
1.43789
1.39872
1.36079
1.32407
1.28852
1.25411
1.22082
1.18859
1.15741
1.12724
1.09804
1.0698
1.04248
1.01606
0.990504
0.965789
0.94189
0.918782
0.896441
0.874844
0.853967
0.833788
0.814287
0.795442
0.777233
0.75964
0.742645
0.726229
0.710374
0.695062
0.680275
0.665997
0.652211
0.6389
0.626047
0.613635
0.601644
0.590034
0.57879
0.567914
0.557379
0.54715
0.537185
0.527426
0.517794
0.508195
0.498506
0.488926
0.480378
0.0304757
0.0582675
0.0793622
0.0964842
0.113137
0.130973
0.150745
0.172719
0.196843
0.222844
0.250414
0.279305
0.309337
0.34038
0.372359
0.405277
0.439144
0.473968
0.509753
0.546506
0.584231
0.622934
0.66262
0.703294
0.744959
0.78762
0.831279
0.875941
0.921608
0.968286
1.01598
1.06469
1.11443
1.16521
1.21703
1.26992
1.32388
1.37893
1.43509
1.4924
1.55088
1.61056
1.67148
1.73369
1.79723
1.86217
1.92855
1.99646
2.06595
2.13712
2.21005
2.28482
2.36154
2.44031
2.52123
2.60442
2.68999
2.77805
2.86872
2.96212
3.05834
3.15748
3.25964
3.36486
3.47321
3.58467
3.69921
3.81673
3.93706
4.05994
4.18425
4.30962
4.43537
4.56058
4.68412
4.80467
4.92076
5.03077
5.13305
5.22593
5.30785
5.37739
5.43337
5.47489
5.50138
5.51259
5.5086
5.48979
5.45683
5.41056
5.35202
5.28237
5.20282
5.1146
5.01897
4.91712
4.81022
4.69934
4.58544
4.46933
4.35193
4.23527
4.12036
4.00772
3.89726
3.7888
3.68232
3.57791
3.47567
3.37571
3.27812
3.18295
3.09026
3.00007
2.91239
2.82722
2.74454
2.66431
2.5865
2.51108
2.43799
2.36718
2.2986
2.23219
2.16789
2.10566
2.04542
1.98712
1.9307
1.87612
1.8233
1.77221
1.72278
1.67496
1.62871
1.58397
1.5407
1.49885
1.45838
1.41924
1.38139
1.34479
1.3094
1.27518
1.2421
1.21012
1.1792
1.14931
1.12042
1.0925
1.06552
1.03944
1.01424
0.989885
0.966355
0.943623
0.921661
0.900447
0.879955
0.860162
0.841047
0.822586
0.80476
0.787546
0.770924
0.754872
0.739372
0.724399
0.709929
0.695929
0.682384
0.669281
0.656585
0.64426
0.632264
0.620552
0.609096
0.597923
0.587394
0.578714
0.0452907
0.0866572
0.113294
0.134925
0.155511
0.176983
0.200248
0.225636
0.253154
0.282639
0.31388
0.346691
0.380927
0.416491
0.453331
0.491423
0.530763
0.571348
0.613182
0.656268
0.700608
0.746206
0.793064
0.841184
0.890565
0.941206
0.993104
1.04626
1.10066
1.15631
1.2132
1.27132
1.33067
1.39125
1.45304
1.51604
1.58025
1.64567
1.71231
1.78015
1.84922
1.91952
1.99107
2.06389
2.138
2.21344
2.29023
2.36844
2.4481
2.52929
2.61206
2.6965
2.78269
2.87073
2.96073
3.05279
3.14706
3.24365
3.34272
3.44442
3.54889
3.65629
3.76679
3.88052
3.99762
4.1182
4.24232
4.37
4.50115
4.63545
4.77236
4.91153
5.05227
5.19366
5.33447
5.47325
5.60825
5.73756
5.85912
5.97085
6.0707
6.15682
6.2276
6.28182
6.31861
6.33755
6.33863
6.32222
6.28903
6.24004
6.17645
6.0996
6.01092
5.91187
5.80388
5.68833
5.56657
5.43975
5.30849
5.17501
5.04055
4.90622
4.77306
4.64163
4.51217
4.38483
4.25979
4.13719
4.01721
3.89997
3.78557
3.67409
3.56558
3.46006
3.35755
3.25803
3.16147
3.06785
2.9771
2.88918
2.80403
2.72159
2.64178
2.56455
2.48981
2.41751
2.34756
2.2799
2.21446
2.15117
2.08997
2.03079
1.97356
1.91822
1.86472
1.81299
1.76297
1.71462
1.66788
1.62269
1.57901
1.53678
1.49596
1.45651
1.41838
1.38152
1.3459
1.31148
1.27822
1.24607
1.21501
1.18499
1.156
1.12798
1.10091
1.07477
1.04951
1.02512
1.00155
0.978796
0.95682
0.935598
0.915105
0.895318
0.876213
0.857766
0.839954
0.822755
0.806143
0.790093
0.774577
0.759585
0.745088
0.731059
0.717476
0.704332
0.691663
0.679603
0.668556
0.659575
0.0572581
0.109261
0.141858
0.168116
0.192435
0.217032
0.24303
0.27092
0.300845
0.332773
0.366602
0.402221
0.439538
0.478485
0.519021
0.561123
0.604782
0.649995
0.69676
0.745078
0.794953
0.846382
0.899367
0.953903
1.00999
1.06761
1.12676
1.18743
1.24961
1.31327
1.3784
1.44498
1.51298
1.58238
1.65316
1.72529
1.79875
1.8735
1.94952
2.0268
2.10529
2.185
2.26589
2.34795
2.43118
2.51557
2.60113
2.68787
2.7758
2.86496
2.95538
3.04712
3.14025
3.23483
3.33097
3.42879
3.5284
3.62997
3.73365
3.83965
3.94815
4.0594
4.17362
4.29107
4.41198
4.53659
4.66512
4.79773
4.93451
5.0752
5.21976
5.36791
5.51907
5.67236
5.82652
5.97996
6.13075
6.27667
6.41526
6.54399
6.66037
6.76205
6.84702
6.91368
6.96088
6.98803
6.995
6.98216
6.95025
6.90037
6.83384
6.75219
6.657
6.54989
6.43248
6.30622
6.17253
6.03288
5.88941
5.74345
5.59629
5.44901
5.30252
5.1574
5.01405
4.8728
4.73391
4.59763
4.46417
4.3337
4.20635
4.08221
3.96135
3.8438
3.72958
3.61868
3.51107
3.40672
3.30559
3.2076
3.1127
3.02082
2.93189
2.84583
2.76256
2.682
2.60408
2.52872
2.45584
2.38537
2.31722
2.25134
2.18764
2.12606
2.06653
2.00898
1.95335
1.89957
1.84759
1.79735
1.74879
1.70186
1.6565
1.61267
1.5703
1.52936
1.4898
1.45157
1.41463
1.37894
1.34446
1.31114
1.27895
1.24785
1.21781
1.18879
1.16076
1.13369
1.10754
1.08229
1.0579
1.03435
1.01161
0.989657
0.968459
0.947994
0.928236
0.909161
0.890745
0.872965
0.855797
0.839224
0.823227
0.807788
0.792905
0.7786
0.764954
0.752141
0.740535
0.730944
0.0657662
0.126872
0.164321
0.194523
0.222108
0.249379
0.277598
0.307405
0.33909
0.372751
0.408395
0.445991
0.485503
0.526901
0.570163
0.615276
0.662235
0.711039
0.761687
0.814182
0.868524
0.924712
0.982745
1.04261
1.10431
1.16783
1.23315
1.30025
1.3691
1.43969
1.51197
1.58592
1.66148
1.73863
1.81731
1.89747
1.97907
2.06205
2.14635
2.23193
2.31871
2.40666
2.49571
2.58582
2.67692
2.76899
2.86198
2.95586
3.0506
3.1462
3.24265
3.33997
3.43819
3.53736
3.63755
3.73885
3.8414
3.94534
4.05085
4.15817
4.26754
4.37926
4.49366
4.61109
4.73194
4.8566
4.98545
5.11886
5.25712
5.40033
5.54873
5.70227
5.86054
6.02276
6.18771
6.35371
6.51863
6.67991
6.83471
6.98
7.11276
7.23013
7.32963
7.40927
7.46763
7.50392
7.51791
7.50995
7.48086
7.43181
7.36427
7.27991
7.18046
7.06768
6.94336
6.80888
6.66711
6.51947
6.3676
6.21303
6.05696
5.90043
5.74428
5.58918
5.43562
5.28401
5.13473
4.98807
4.84429
4.70361
4.56617
4.43209
4.30148
4.17436
4.05078
3.93073
3.81419
3.70114
3.59152
3.48528
3.38235
3.28267
3.18616
3.09275
3.00235
2.91488
2.83025
2.7484
2.66923
2.59267
2.51863
2.44704
2.37783
2.31091
2.24621
2.18367
2.12321
2.06477
2.00828
1.95368
1.90091
1.84991
1.80061
1.75298
1.70694
1.66245
1.61946
1.57792
1.53778
1.49899
1.46152
1.42531
1.39034
1.35654
1.3239
1.29236
1.2619
1.23248
1.20406
1.17662
1.15011
1.12452
1.0998
1.07594
1.0529
1.03065
1.00918
0.988455
0.968451
0.949149
0.930528
0.91257
0.89526
0.878593
0.862582
0.847269
0.832755
0.819222
0.806979
0.796634
0.0719977
0.1396
0.180452
0.213605
0.243765
0.273182
0.30315
0.334407
0.36736
0.402218
0.439085
0.478005
0.518996
0.562065
0.607214
0.654448
0.70377
0.755186
0.808702
0.864323
0.922053
0.981893
1.04384
1.10789
1.17404
1.24226
1.31254
1.38485
1.45916
1.53544
1.61363
1.6937
1.77559
1.85924
1.94458
2.03155
2.12006
2.21005
2.30143
2.3941
2.48799
2.583
2.67905
2.77603
2.87385
2.97244
3.0717
3.17155
3.27192
3.37275
3.47399
3.5756
3.67757
3.77989
3.88261
3.98578
4.08949
4.1939
4.29917
4.40555
4.51332
4.62283
4.73451
4.84882
4.9663
5.08752
5.21308
5.3436
5.47965
5.62173
5.77047
5.92612
6.08856
6.2572
6.4309
6.60795
6.78599
6.96213
7.13305
7.29514
7.44478
7.57854
7.69339
7.78693
7.85745
7.90398
7.92619
7.92444
7.89962
7.85302
7.78622
7.70106
7.59944
7.48308
7.35494
7.21675
7.07064
6.91838
6.76158
6.60167
6.43984
6.27714
6.11441
5.95238
5.79161
5.6326
5.47578
5.32149
5.17003
5.02166
4.87655
4.73486
4.59669
4.46211
4.33116
4.20385
4.08018
3.96013
3.84365
3.73069
3.6212
3.5151
3.41233
3.31281
3.21646
3.1232
3.03294
2.9456
2.86111
2.77937
2.7003
2.62383
2.54988
2.47837
2.40922
2.34236
2.27772
2.21523
2.15482
2.09642
2.03996
1.9854
1.93266
1.88168
1.83241
1.7848
1.73879
1.69432
1.65135
1.60983
1.5697
1.53094
1.49348
1.45729
1.42233
1.38855
1.35592
1.3244
1.29396
1.26455
1.23615
1.20871
1.18223
1.15665
1.13195
1.10811
1.08509
1.06288
1.04145
1.02078
1.00085
0.981652
0.963166
0.9454
0.928376
0.912151
0.896828
0.882573
0.869635
0.85847
0.0761401
0.14785
0.19068
0.225665
0.257559
0.288477
0.319673
0.351919
0.385691
0.421281
0.458865
0.498546
0.54039
0.584435
0.630711
0.679238
0.730034
0.783118
0.838503
0.896203
0.956227
1.01858
1.08327
1.15029
1.21963
1.29128
1.36522
1.44142
1.51984
1.60044
1.68318
1.76799
1.85481
1.94356
2.03417
2.12655
2.22061
2.31624
2.41333
2.51178
2.61146
2.71226
2.81403
2.91666
3.02001
3.12395
3.22835
3.33307
3.43799
3.54299
3.64797
3.75283
3.8575
3.96191
4.06605
4.16992
4.27356
4.37707
4.4806
4.58437
4.68869
4.79392
4.90055
5.00916
5.12041
5.2351
5.35407
5.47823
5.60851
5.7459
5.89151
6.04603
6.20976
6.38241
6.56303
6.74987
6.94039
7.13128
7.31864
7.49821
7.66563
7.81676
7.94798
8.05645
8.14021
8.19805
8.22961
8.23531
8.21611
8.17348
8.10901
8.02494
7.92386
7.80787
7.67941
7.54056
7.39335
7.23955
7.08075
6.91835
6.75357
6.58745
6.42089
6.25464
6.08935
5.92556
5.76375
5.6043
5.44755
5.29378
5.1432
4.99599
4.85227
4.71213
4.57563
4.4428
4.31364
4.18815
4.06629
3.94802
3.8333
3.72205
3.61422
3.50972
3.4085
3.31046
3.21553
3.12363
3.03467
2.94858
2.86527
2.78466
2.70668
2.63125
2.55828
2.48771
2.41946
2.35346
2.28964
2.22793
2.16827
2.11059
2.05482
2.00091
1.94881
1.89843
1.84975
1.80269
1.75721
1.71326
1.67078
1.62973
1.59006
1.55173
1.51469
1.4789
1.44433
1.41092
1.37865
1.34747
1.31735
1.28826
1.26017
1.23304
1.20684
1.18155
1.15713
1.13357
1.11084
1.08893
1.06782
1.04748
1.02793
1.00916
0.991204
0.974128
0.958029
0.943047
0.929372
0.917354
0.0783742
0.152196
0.195742
0.231474
0.264219
0.295939
0.327797
0.360548
0.394692
0.430563
0.468381
0.508294
0.550399
0.594765
0.641442
0.690472
0.741887
0.795719
0.851992
0.910731
0.971955
1.03568
1.10191
1.17065
1.2419
1.31565
1.39188
1.47056
1.55166
1.63514
1.72093
1.80898
1.89921
1.99155
2.0859
2.18217
2.28024
2.37999
2.48131
2.58404
2.68806
2.79321
2.89933
3.00626
3.11382
3.22185
3.33017
3.43861
3.54697
3.6551
3.76283
3.86999
3.97645
4.08208
4.18678
4.29049
4.39318
4.49487
4.59567
4.69572
4.79531
4.89478
4.99465
5.09555
5.19829
5.30381
5.41326
5.52787
5.64899
5.7782
5.9172
6.06732
6.22941
6.40366
6.58941
6.78496
6.98752
7.1933
7.39769
7.59561
7.78187
7.95143
8.09998
8.22432
8.32226
8.39231
8.43416
8.44839
8.436
8.39893
8.33932
8.25954
8.16207
8.04926
7.92344
7.78675
7.64116
7.48847
7.33027
7.16797
7.00279
6.83581
6.66797
6.50004
6.33272
6.16659
6.00215
5.83985
5.68003
5.52301
5.36902
5.21827
5.07089
4.927
4.78667
4.64995
4.51687
4.38742
4.26159
4.13934
4.02065
3.90545
3.79369
3.68531
3.58023
3.47838
3.3797
3.2841
3.19151
3.10184
3.01503
2.93098
2.84963
2.7709
2.69472
2.621
2.54968
2.48069
2.41394
2.34939
2.28696
2.22658
2.16819
2.11172
2.05713
2.00435
1.95331
1.90398
1.85628
1.81018
1.76561
1.72253
1.6809
1.64065
1.60176
1.56417
1.52785
1.49275
1.45883
1.42606
1.3944
1.36381
1.33426
1.30572
1.27816
1.25155
1.22586
1.20107
1.17716
1.15411
1.13191
1.11054
1.09
1.0703
1.05148
1.0336
1.01674
1.00103
0.986593
0.973712
0.0789131
0.153278
0.196512
0.232044
0.26482
0.296659
0.328615
0.361382
0.395446
0.431145
0.46872
0.508341
0.550131
0.594181
0.640561
0.689329
0.740536
0.794224
0.850432
0.909196
0.970545
1.0345
1.10109
1.17031
1.24218
1.31668
1.39381
1.47355
1.55585
1.64068
1.72799
1.81771
1.90977
2.00408
2.10055
2.19906
2.29951
2.40176
2.50567
2.61109
2.71785
2.82579
2.93472
3.04445
3.15478
3.26551
3.37641
3.48728
3.59789
3.70801
3.81743
3.92592
4.03328
4.13931
4.24383
4.34669
4.44779
4.54707
4.64451
4.74021
4.83434
4.92721
5.01928
5.11119
5.20381
5.29823
5.39582
5.49819
5.60718
5.72501
5.85412
5.99665
6.15424
6.32776
6.51699
6.72031
6.93465
7.1556
7.37768
7.59483
7.80093
7.98975
8.15623
8.29693
8.40964
8.49248
8.54527
8.56911
8.56545
8.53634
8.48404
8.41099
8.31965
8.21244
8.09166
7.95948
7.81788
7.66865
7.51341
7.35357
7.19039
7.02496
6.85821
6.69098
6.52396
6.35778
6.19297
6.02999
5.86922
5.71098
5.55555
5.40313
5.2539
5.10799
4.96549
4.82646
4.69095
4.55897
4.43052
4.30559
4.18415
4.06616
3.95158
3.84035
3.73241
3.6277
3.52616
3.4277
3.33227
3.23979
3.15019
3.06339
2.97932
2.89791
2.81909
2.74277
2.66891
2.59741
2.52822
2.46127
2.39649
2.33381
2.27318
2.21453
2.1578
2.10293
2.04987
1.99855
1.94892
1.90094
1.85454
1.80968
1.76631
1.72438
1.68385
1.64466
1.60678
1.57017
1.53479
1.50059
1.46753
1.4356
1.40474
1.37493
1.34613
1.31832
1.29148
1.26557
1.24058
1.2165
1.1933
1.17097
1.14952
1.12896
1.10933
1.09068
1.07308
1.05663
1.04142
1.02769
0.0779518
0.151709
0.193882
0.228487
0.260613
0.291978
0.323514
0.355834
0.389376
0.424459
0.461322
0.500145
0.541066
0.584191
0.629609
0.677393
0.727606
0.780306
0.835544
0.893366
0.953813
1.01692
1.08271
1.15121
1.22243
1.29638
1.37304
1.45241
1.53446
1.61914
1.70642
1.79623
1.8885
1.98314
2.08006
2.17915
2.28029
2.38333
2.48813
2.59453
2.70236
2.81142
2.92152
3.03245
3.14398
3.25588
3.36791
3.47982
3.59134
3.70221
3.81215
3.92091
4.0282
4.13377
4.23737
4.33877
4.43776
4.53419
4.62795
4.71902
4.80746
4.89347
4.97742
5.05988
5.1417
5.22402
5.30838
5.39673
5.49141
5.59539
5.71197
5.84425
5.99489
6.16575
6.35723
6.56775
6.79387
7.03036
7.27062
7.50748
7.7341
7.9425
8.12671
8.28338
8.41021
8.50603
8.5709
8.60585
8.61254
8.59305
8.54976
8.48515
8.40173
8.30194
8.1881
8.06239
7.92679
7.7831
7.63295
7.47774
7.31875
7.15707
6.99364
6.82929
6.66476
6.50068
6.33759
6.17597
6.01623
5.85871
5.70369
5.55141
5.40205
5.25577
5.11267
4.97285
4.83635
4.70322
4.57347
4.44711
4.32412
4.20447
4.08814
3.97508
3.86525
3.7586
3.65506
3.55459
3.4571
3.36255
3.27087
3.18199
3.09583
3.01235
2.93146
2.85309
2.7772
2.70369
2.63252
2.56361
2.49691
2.43234
2.36984
2.30937
2.25084
2.19422
2.13943
2.08643
2.03516
1.98556
1.93759
1.89119
1.84631
1.80292
1.76095
1.72036
1.68112
1.64318
1.6065
1.57103
1.53675
1.50361
1.47158
1.44063
1.41073
1.38185
1.35396
1.32704
1.30107
1.27605
1.25193
1.22872
1.20643
1.18507
1.16467
1.14528
1.12697
1.10979
1.09382
1.07925
0.0756183
0.147956
0.188633
0.221873
0.252887
0.283331
0.314025
0.345493
0.378113
0.41217
0.44789
0.485451
0.524997
0.566648
0.610502
0.656647
0.705157
0.756102
0.809544
0.86554
0.92414
0.98539
1.04933
1.11598
1.18537
1.25752
1.33243
1.41008
1.49047
1.57356
1.65932
1.74768
1.83858
1.93195
2.02769
2.12568
2.22581
2.32794
2.43193
2.53759
2.64477
2.75325
2.86283
2.97329
3.08438
3.19586
3.30747
3.41892
3.52993
3.6402
3.74942
3.85728
3.96347
4.06766
4.16955
4.26883
4.36522
4.45848
4.5484
4.63483
4.71771
4.79713
4.87331
4.9467
5.01805
5.08848
5.15957
5.23354
5.31315
5.40227
5.50505
5.62565
5.76802
5.93532
6.12897
6.34694
6.58538
6.83793
7.09653
7.35246
7.59723
7.82313
8.02416
8.19635
8.33736
8.44625
8.52325
8.56953
8.58688
8.57753
8.54393
8.48863
8.41418
8.32303
8.21751
8.09978
7.97182
7.83541
7.69215
7.54346
7.39058
7.23459
7.07644
6.91697
6.75688
6.59684
6.43738
6.27901
6.12214
5.96711
5.81423
5.66376
5.51589
5.37079
5.2286
5.08941
4.95331
4.82035
4.69056
4.56396
4.44056
4.32036
4.20332
4.08943
3.97865
3.87095
3.76628
3.66459
3.56583
3.46994
3.37688
3.28657
3.19897
3.11401
3.03162
2.95175
2.87434
2.79931
2.72662
2.6562
2.58799
2.52193
2.45796
2.39601
2.33604
2.27799
2.22179
2.16741
2.11477
2.06383
2.01454
1.96685
1.9207
1.87606
1.83287
1.79109
1.75068
1.71159
1.67378
1.63721
1.60185
1.56766
1.53461
1.50265
1.47177
1.44193
1.41311
1.38529
1.35845
1.33257
1.30762
1.28361
1.26054
1.23843
1.21731
1.19722
1.17821
1.16033
1.14362
1.12825
0.0720878
0.142243
0.181334
0.213129
0.24285
0.272119
0.301681
0.331989
0.363367
0.396065
0.430291
0.466214
0.503978
0.543706
0.585506
0.629473
0.67569
0.724237
0.775185
0.828598
0.884538
0.943058
1.00421
1.06802
1.13453
1.20377
1.27574
1.35046
1.4279
1.50806
1.5909
1.67638
1.76444
1.855
1.94799
2.04329
2.14079
2.24037
2.34187
2.44512
2.54995
2.65617
2.76355
2.87187
2.98088
3.09033
3.19993
3.3094
3.41843
3.5267
3.63387
3.73961
3.84357
3.94539
4.04471
4.14119
4.23447
4.32425
4.41022
4.49214
4.56987
4.64334
4.71265
4.77811
4.84034
4.90036
4.95976
5.02089
5.08685
5.1625
5.25274
5.36287
5.49804
5.66241
5.85795
6.08336
6.33395
6.60205
6.87804
7.15172
7.41354
7.65537
7.87105
8.05652
8.20961
8.32961
8.41701
8.47321
8.50017
8.50024
8.47597
8.42993
8.3647
8.28271
8.18626
8.07747
7.95827
7.8304
7.69543
7.55472
7.40949
7.26079
7.10956
6.95661
6.80265
6.64831
6.49416
6.34068
6.18829
6.03735
5.88817
5.74102
5.59611
5.45362
5.31371
5.17649
5.04207
4.91051
4.78186
4.65617
4.53345
4.41372
4.29697
4.1832
4.07239
3.96451
3.85953
3.75742
3.65814
3.56164
3.46788
3.37681
3.28837
3.20252
3.11921
3.03837
2.95995
2.8839
2.81016
2.73867
2.66938
2.60222
2.53715
2.47411
2.41304
2.35389
2.2966
2.24113
2.18741
2.13541
2.08506
2.03632
1.98915
1.94348
1.89929
1.85652
1.81513
1.77508
1.73632
1.69883
1.66255
1.62746
1.59352
1.5607
1.52897
1.4983
1.46867
1.44005
1.41243
1.38578
1.36008
1.33534
1.31157
1.28878
1.26699
1.24624
1.22656
1.208
1.19058
1.17445
0.0680541
0.134996
0.172577
0.203086
0.231533
0.259514
0.28775
0.316662
0.34654
0.377608
0.410051
0.444027
0.479674
0.517113
0.556453
0.597794
0.641224
0.686828
0.734683
0.784863
0.837433
0.892457
0.949989
1.01008
1.07277
1.13809
1.20607
1.27672
1.35005
1.42605
1.50469
1.58595
1.66978
1.75612
1.8449
1.93601
2.02937
2.12483
2.22227
2.32152
2.42242
2.52476
2.62834
2.73293
2.83829
2.94416
3.05024
3.15625
3.26187
3.36678
3.47062
3.57305
3.67369
3.77217
3.86811
3.96111
4.05081
4.13684
4.21884
4.29654
4.36967
4.4381
4.50181
4.56101
4.61617
4.66819
4.71862
4.76989
4.82553
4.89119
4.97244
5.07561
5.20706
5.37199
5.57293
5.80847
6.0729
6.35691
6.64921
6.93827
7.21376
7.46737
7.6931
7.88723
8.04798
8.17505
8.26931
8.3324
8.36649
8.37404
8.35762
8.31984
8.26319
8.19008
8.10271
8.00312
7.89317
7.77452
7.64865
7.51687
7.38034
7.24007
7.09696
6.95178
6.80523
6.65793
6.51042
6.36317
6.21661
6.07109
5.92693
5.7844
5.64372
5.5051
5.36869
5.23463
5.10304
4.97399
4.84757
4.72383
4.6028
4.48452
4.369
4.25624
4.14626
4.03903
3.93454
3.83277
3.73369
3.63727
3.54348
3.45228
3.36362
3.27748
3.19379
3.11251
3.0336
2.957
2.88267
2.81056
2.7406
2.67276
2.60698
2.54321
2.48139
2.42148
2.36342
2.30717
2.25267
2.19987
2.14873
2.09921
2.05124
2.00479
1.95981
1.91626
1.87409
1.83327
1.79375
1.7555
1.71848
1.68264
1.64797
1.61443
1.58198
1.5506
1.52027
1.49097
1.46267
1.43534
1.40899
1.3836
1.35919
1.33577
1.31337
1.292
1.27171
1.25251
1.23441
1.21757
0.0632938
0.126491
0.162671
0.192073
0.219339
0.246014
0.272828
0.300199
0.328404
0.357651
0.388107
0.419915
0.453205
0.488089
0.524672
0.563052
0.603319
0.645559
0.689853
0.736277
0.784903
0.835801
0.889033
0.944656
1.00272
1.06327
1.12634
1.19196
1.26015
1.33091
1.40423
1.4801
1.55848
1.63933
1.72259
1.80818
1.89601
1.98597
2.07794
2.17176
2.26727
2.3643
2.46264
2.56207
2.66236
2.76324
2.86444
2.96567
3.06661
3.16694
3.26632
3.36437
3.46073
3.55503
3.64687
3.73585
3.8216
3.90373
3.98188
4.05573
4.125
4.18951
4.24918
4.30413
4.35474
4.40184
4.44692
4.49217
4.54286
4.6042
4.68262
4.78551
4.92033
5.09303
5.30612
5.55718
5.83862
6.13909
6.44561
6.74577
7.0291
7.28775
7.51647
7.71233
7.87425
8.00256
8.09853
8.16411
8.20161
8.21356
8.20252
8.17101
8.12144
8.05608
7.97701
7.88615
7.78522
7.67576
7.55916
7.43664
7.30927
7.17801
7.0437
6.90706
6.76875
6.62937
6.48944
6.3494
6.20967
6.07059
5.93249
5.79561
5.66021
5.52648
5.3946
5.2647
5.13693
5.01137
4.88813
4.76726
4.64882
4.53287
4.41942
4.30851
4.20015
4.09434
3.99108
3.89037
3.79218
3.69651
3.60333
3.51261
3.42432
3.33844
3.25491
3.17372
3.09481
3.01815
2.94369
2.87139
2.80119
2.73307
2.66696
2.60283
2.54061
2.48028
2.42177
2.36505
2.31006
2.25676
2.2051
2.15504
2.10653
2.05953
2.01399
1.96988
1.92714
1.88575
1.84565
1.80682
1.76922
1.73281
1.69755
1.66343
1.6304
1.59845
1.56755
1.53767
1.50879
1.48089
1.45396
1.42802
1.40305
1.37908
1.35612
1.33419
1.31332
1.29353
1.27481
1.25731
0.0580061
0.117156
0.151973
0.180363
0.206521
0.23192
0.257295
0.283074
0.309531
0.336864
0.365229
0.394753
0.425552
0.457728
0.491378
0.52659
0.563452
0.602048
0.642458
0.68476
0.729029
0.775339
0.823758
0.87435
0.927177
0.98229
1.03974
1.09956
1.16179
1.22644
1.29353
1.36305
1.43499
1.50931
1.58599
1.66496
1.74614
1.82944
1.91476
2.00196
2.09091
2.18142
2.27332
2.3664
2.46044
2.5552
2.6504
2.74576
2.84099
2.93576
3.02974
3.12259
3.21393
3.3034
3.39061
3.47521
3.5568
3.63503
3.70955
3.78006
3.84631
3.90811
3.96539
4.01824
4.06703
4.11258
4.15638
4.20105
4.25264
4.31671
4.40056
4.51264
4.66133
4.85266
5.08787
5.36196
5.66431
5.98108
6.29805
6.60281
6.88585
7.14066
7.36346
7.55255
7.70788
7.83046
7.92204
7.98482
8.02123
8.03374
8.02484
7.99689
7.95215
7.89269
7.82041
7.73707
7.64421
7.54324
7.43542
7.32183
7.20347
7.0812
6.95579
6.82792
6.69819
6.56715
6.43528
6.30301
6.17072
6.03874
5.90739
5.7769
5.64753
5.51946
5.39289
5.26795
5.14479
5.02352
4.90424
4.78703
4.67196
4.55909
4.44847
4.34013
4.23411
4.13041
4.02906
3.93006
3.83341
3.7391
3.64713
3.55747
3.47011
3.38503
3.3022
3.22159
3.14317
3.06691
2.99277
2.92071
2.85069
2.78268
2.71662
2.65249
2.59024
2.52982
2.47119
2.41431
2.35913
2.30561
2.2537
2.20337
2.15457
2.10726
2.06139
2.01694
1.97384
1.93208
1.8916
1.85237
1.81436
1.77754
1.74186
1.70731
1.67385
1.64146
1.6101
1.57976
1.55041
1.52204
1.49465
1.46823
1.44279
1.41834
1.39489
1.37247
1.35108
1.33074
1.31146
1.29336
0.0525028
0.107411
0.140817
0.16821
0.19331
0.217499
0.241496
0.265729
0.290468
0.315904
0.34218
0.36941
0.397695
0.427122
0.457775
0.489737
0.523085
0.557899
0.594256
0.632234
0.671909
0.713357
0.756652
0.801865
0.849063
0.898312
0.949668
1.00319
1.05891
1.11687
1.1771
1.23962
1.30443
1.37152
1.44086
1.51243
1.58616
1.66199
1.73982
1.81956
1.90107
1.98421
2.06882
2.1547
2.24166
2.32946
2.41785
2.50659
2.59537
2.6839
2.77186
2.85892
2.94474
3.02898
3.11128
3.19129
3.26869
3.34313
3.41434
3.48206
3.54609
3.6063
3.66267
3.71534
3.76471
3.81161
3.85736
3.9074
3.9665
4.04128
4.1404
4.27364
4.44991
4.67392
4.94338
5.24854
5.57458
5.90536
6.22655
6.52724
6.80015
7.04111
7.24838
7.42188
7.56267
7.6725
7.75355
7.80818
7.8388
7.84781
7.8375
7.81003
7.76742
7.71151
7.64399
7.5664
7.4801
7.38632
7.28617
7.18062
7.07053
6.95668
6.83974
6.72034
6.59901
6.47624
6.35248
6.2281
6.10347
5.97888
5.85461
5.73092
5.60803
5.48612
5.36538
5.24596
5.12799
5.01161
4.8969