/*--------------------------------*- C++ -*----------------------------------*\
| =========                 |                                                 |
| \\      /  F ield         | OpenFOAM: The Open Source CFD Toolbox           |
|  \\    /   O peration     | Version:  1.4.2                                 |
|   \\  /    A nd           | Web:      http://www.openfoam.org               |
|    \\/     M anipulation  |                                                 |
\*---------------------------------------------------------------------------*/
FoamFile
{
    version     2.0;
    format      ascii;
    class       volScalarField;
    object      p;
    location    "350";
}
// * * * * * * * * * * * * * * * * * * * * * * * * * * * * * * * * * * * * * //

dimensions      [0 2 -2 0 0 0 0];

internalField   nonuniform List<scalar> 
12225
(
-1.49631
-2.3334
-2.5814
-2.67694
-2.77991
-2.88009
-2.96735
-3.04533
-3.11789
-3.18668
-3.25257
-3.3165
-3.37949
-3.4429
-3.50868
-3.58021
-3.66318
-3.78198
-1.66264
-2.34055
-2.57938
-2.67853
-2.78053
-2.879
-2.96508
-3.04214
-3.11383
-3.18177
-3.24685
-3.30996
-3.37215
-3.4347
-3.49944
-3.56942
-3.64978
-3.75601
-1.8417
-2.3365
-2.56858
-2.67619
-2.77835
-2.87542
-2.96083
-3.03758
-3.10897
-3.17655
-3.24123
-3.30387
-3.36542
-3.427
-3.49003
-3.55643
-3.6277
-3.70557
-1.99892
-2.35411
-2.57148
-2.68344
-2.78404
-2.87862
-2.9627
-3.03873
-3.10954
-3.17659
-3.24073
-3.30275
-3.36345
-3.42369
-3.48437
-3.54624
-3.60853
-3.6685
-2.12889
-2.38564
-2.58221
-2.69472
-2.79292
-2.88463
-2.96693
-3.04179
-3.11163
-3.17775
-3.24097
-3.30196
-3.36136
-3.41973
-3.47744
-3.53439
-3.58868
-3.63646
-2.24218
-2.42563
-2.59804
-2.70802
-2.8031
-2.89176
-2.97214
-3.04572
-3.1145
-3.17961
-3.24177
-3.30156
-3.35942
-3.41566
-3.47024
-3.52253
-3.57041
-3.61042
-2.34276
-2.47155
-2.61873
-2.72338
-2.81445
-2.89959
-2.97764
-3.04966
-3.1172
-3.18117
-3.24217
-3.30062
-3.35682
-3.41083
-3.46236
-3.51058
-3.55359
-3.58883
-2.41929
-2.51379
-2.64017
-2.73832
-2.82525
-2.90695
-2.98262
-3.05299
-3.11919
-3.18196
-3.24178
-3.29896
-3.35365
-3.40578
-3.45496
-3.50035
-3.54039
-3.57327
-2.48073
-2.55229
-2.66128
-2.7531
-2.83591
-2.91429
-2.98762
-3.05627
-3.12107
-3.1826
-3.24121
-3.29713
-3.35041
-3.4009
-3.44817
-3.49147
-3.5296
-3.56117
-2.54138
-2.59446
-2.68616
-2.77061
-2.84858
-2.92311
-2.99366
-3.06024
-3.12334
-3.18337
-3.24055
-3.29501
-3.34671
-3.39548
-3.44091
-3.48238
-3.51906
-3.54992
-2.60047
-2.63934
-2.71475
-2.79088
-2.86335
-2.93353
-3.00084
-3.06496
-3.12605
-3.18431
-3.23984
-3.29266
-3.3427
-3.38975
-3.43348
-3.47343
-3.50908
-3.53974
-2.6572
-2.68566
-2.74655
-2.81378
-2.88021
-2.94561
-3.00925
-3.07051
-3.12926
-3.18548
-3.23915
-3.29021
-3.33853
-3.38392
-3.42614
-3.46489
-3.49989
-3.53072
-2.71083
-2.73193
-2.78056
-2.83886
-2.89894
-2.95926
-3.01886
-3.07692
-3.13303
-3.18697
-3.23861
-3.28779
-3.33439
-3.37823
-3.41914
-3.45698
-3.49163
-3.52285
-2.76044
-2.77645
-2.81527
-2.86521
-2.91893
-2.97409
-3.02946
-3.08408
-3.13732
-3.18881
-3.23828
-3.28556
-3.33046
-3.37287
-3.41269
-3.44984
-3.48432
-3.51601
-2.80472
-2.81729
-2.84866
-2.89133
-2.9391
-2.9893
-3.04049
-3.09162
-3.14192
-3.19088
-3.23818
-3.28357
-3.32688
-3.36799
-3.40686
-3.44348
-3.47786
-3.50997
-2.84173
-2.85205
-2.87813
-2.91504
-2.95774
-3.00355
-3.05095
-3.09882
-3.14632
-3.19289
-3.23811
-3.28173
-3.32357
-3.36353
-3.40158
-3.43772
-3.47198
-3.50435
-2.86851
-2.8775
-2.90028
-2.93331
-2.97233
-3.01481
-3.05922
-3.10443
-3.1496
-3.19412
-3.23757
-3.27967
-3.32026
-3.35922
-3.39653
-3.4322
-3.46624
-3.49864
-2.87964
-2.88822
-2.90994
-2.94154
-2.97901
-3.01992
-3.06278
-3.10652
-3.15029
-3.19353
-3.23581
-3.27688
-3.31657
-3.35479
-3.3915
-3.42671
-3.46042
-3.4926
-2.87382
-2.88292
-2.90584
-2.93858
-2.97678
-3.01805
-3.06099
-3.10459
-3.14808
-3.19092
-3.23277
-3.27338
-3.31262
-3.35041
-3.38673
-3.42158
-3.45495
-3.48682
-2.85472
-2.86533
-2.89156
-2.9276
-2.96831
-3.01138
-3.05559
-3.10003
-3.14402
-3.18711
-3.22903
-3.2696
-3.30871
-3.34632
-3.38241
-3.41701
-3.4501
-3.48165
-2.82494
-2.83841
-2.87033
-2.9116
-2.95612
-3.00195
-3.04821
-3.09409
-3.13905
-3.18277
-3.22506
-3.26582
-3.30499
-3.34256
-3.37855
-3.41296
-3.44582
-3.47707
-2.78576
-2.8042
-2.84476
-2.89296
-2.94213
-2.99134
-3.04007
-3.0877
-3.13385
-3.17836
-3.22116
-3.26224
-3.30158
-3.3392
-3.37514
-3.40943
-3.44208
-3.47305
-2.7375
-2.7644
-2.81722
-2.87362
-2.9278
-2.98063
-3.03201
-3.08145
-3.12881
-3.17415
-3.21751
-3.25894
-3.29849
-3.33621
-3.37215
-3.40635
-3.43884
-3.46952
-2.67964
-2.7207
-2.78992
-2.85504
-2.91409
-2.97052
-3.02449
-3.07565
-3.12414
-3.17025
-3.21412
-3.2559
-3.29567
-3.33351
-3.36948
-3.40363
-3.43597
-3.46636
-2.61099
-2.67504
-2.76489
-2.83825
-2.90159
-2.96144
-3.01778
-3.07041
-3.11985
-3.16659
-3.2109
-3.25296
-3.29292
-3.33089
-3.36693
-3.40108
-3.43333
-3.46347
-2.52982
-2.6298
-2.74366
-2.82362
-2.8904
-2.95331
-3.0117
-3.06551
-3.11569
-3.16292
-3.20757
-3.24987
-3.29
-3.32812
-3.36429
-3.39856
-3.43084
-3.46083
-2.43267
-2.58863
-2.7274
-2.81108
-2.88042
-2.94611
-3.00625
-3.06103
-3.11183
-3.15952
-3.20452
-3.2471
-3.28749
-3.32585
-3.3623
-3.39688
-3.42948
-3.45971
-2.30793
-2.55736
-2.71871
-2.80148
-2.87234
-2.94052
-3.00214
-3.05769
-3.10899
-3.15705
-3.20233
-3.24513
-3.28571
-3.32426
-3.36096
-3.39591
-3.42905
-3.46004
-2.14699
-2.54658
-2.72582
-2.8025
-2.87298
-2.94254
-3.00484
-3.06056
-3.11193
-3.16004
-3.20535
-3.24816
-3.28876
-3.32737
-3.36421
-3.39952
-3.43345
-3.46639
-1.9841
-2.53004
-2.7258
-2.7998
-2.87085
-2.94177
-3.00483
-3.06095
-3.1126
-3.16099
-3.20655
-3.24961
-3.29045
-3.32932
-3.36646
-3.40221
-3.43706
-3.47495
-4.06196
-4.06243
-4.06669
-4.07256
-4.07827
-4.0837
-4.08961
-4.09834
-4.11137
-4.12883
-4.15127
-4.17925
-4.21322
-4.25332
-4.29941
-4.35153
-4.4098
-4.4742
-4.54468
-4.62113
-4.70344
-4.79147
-4.88506
-4.98404
-5.08827
-5.19755
-5.31173
-5.43064
-5.55412
-5.68199
-5.81411
-5.9503
-6.0904
-6.23424
-6.38164
-6.5324
-6.68635
-6.84326
-7.00293
-7.16512
-7.32956
-7.49597
-7.66403
-7.83339
-8.00364
-8.17432
-8.34492
-8.51489
-8.68357
-8.85024
-9.01408
-9.17414
-9.32937
-9.47854
-9.62029
-9.75304
-9.87504
-9.98433
-10.0787
-10.1556
-10.2122
-10.2456
-10.2522
-10.2284
-10.1701
-10.0729
-9.93245
-9.74449
-9.50432
-9.20655
-8.84599
-8.41885
-7.92269
-7.35618
-6.71944
-6.01411
-5.24351
-4.41255
-3.52768
-2.59668
-1.62837
-0.632301
0.381592
1.40333
2.42321
3.43211
4.42172
5.38467
6.3147
7.20668
8.05663
8.86164
9.61984
10.3303
10.9928
11.608
12.177
12.7015
13.1837
13.6259
14.0305
14.3999
14.7419
15.0594
15.3477
15.6062
15.8376
16.0444
16.2288
16.393
16.5388
16.668
16.7823
16.8832
16.9719
17.0499
17.118
17.1775
17.2291
17.2738
17.3122
17.3451
17.3731
17.3966
17.4162
17.4324
17.4455
17.456
17.464
17.4699
17.474
17.4765
17.4775
17.4773
17.476
17.4738
17.4707
17.4669
17.4626
17.4576
17.4522
17.4464
17.4403
17.4338
17.4271
17.4202
17.413
17.4057
17.3982
17.3905
17.3827
17.3748
17.3668
17.3587
17.3504
17.342
17.3335
17.3248
17.316
17.307
17.2978
17.2886
17.2791
17.2696
17.26
17.2503
17.2407
17.2312
17.2219
17.2132
17.2054
17.1989
17.1947
17.1937
17.1978
17.2099
17.235
17.2819
17.3732
17.5293
-4.05609
-4.05872
-4.06214
-4.06591
-4.06987
-4.07332
-4.07667
-4.08134
-4.08948
-4.10221
-4.12019
-4.14382
-4.17332
-4.20878
-4.25036
-4.29821
-4.35233
-4.41267
-4.47914
-4.55162
-4.62998
-4.71408
-4.80376
-4.89886
-4.99921
-5.10466
-5.21505
-5.3302
-5.44996
-5.57417
-5.70269
-5.83534
-5.97197
-6.11241
-6.25648
-6.40403
-6.55486
-6.70877
-6.86557
-7.02503
-7.18691
-7.35093
-7.5168
-7.68418
-7.85269
-8.02192
-8.19138
-8.36055
-8.52884
-8.69558
-8.85999
-9.02121
-9.17825
-9.32999
-9.47516
-9.61233
-9.73987
-9.85597
-9.95856
-10.0454
-10.1137
-10.1609
-10.1836
-10.1783
-10.1413
-10.0683
-9.95536
-9.79826
-9.59209
-9.33082
-9.00922
-8.62368
-8.17129
-7.65016
-7.05968
-6.4007
-5.67567
-4.88863
-4.04514
-3.15218
-2.21784
-1.25112
-0.261496
0.741312
1.74773
2.74861
3.73544
4.7006
5.63746
6.54044
7.40508
8.22799
9.00681
9.74009
10.4273
11.0684
11.6643
12.2159
12.7247
13.1927
13.6231
14.0201
14.3847
14.7163
15.0168
15.2884
15.5335
15.7542
15.9525
16.1305
16.2899
16.4325
16.5597
16.673
16.7738
16.8632
16.9424
17.0124
17.074
17.1281
17.1755
17.2169
17.2528
17.2839
17.3107
17.3336
17.353
17.3694
17.383
17.3941
17.4031
17.4101
17.4155
17.4193
17.4218
17.4231
17.4233
17.4226
17.4211
17.4188
17.4159
17.4125
17.4085
17.4041
17.3993
17.3941
17.3886
17.3829
17.3768
17.3705
17.3639
17.3572
17.3503
17.3432
17.3359
17.3283
17.3206
17.3127
17.3046
17.2962
17.2877
17.279
17.2702
17.2611
17.252
17.2428
17.2336
17.2245
17.2157
17.2073
17.1999
17.1939
17.1901
17.1896
17.1942
17.2069
17.2324
17.2784
17.3642
17.484
-4.03174
-4.03925
-4.04678
-4.05217
-4.05633
-4.06064
-4.06612
-4.07373
-4.08445
-4.09906
-4.11818
-4.14232
-4.1718
-4.20684
-4.24756
-4.29411
-4.34653
-4.40483
-4.46898
-4.5389
-4.61451
-4.6957
-4.78234
-4.87432
-4.97148
-5.0737
-5.18083
-5.29274
-5.40928
-5.53032
-5.65569
-5.78527
-5.9189
-6.05642
-6.19767
-6.34249
-6.49071
-6.64213
-6.79656
-6.95379
-7.11356
-7.27563
-7.43971
-7.60547
-7.77256
-7.94058
-8.10907
-8.27755
-8.44544
-8.61211
-8.77683
-8.93879
-9.09706
-9.25061
-9.39824
-9.53863
-9.67028
-9.79148
-9.90031
-9.99464
-10.072
-10.1298
-10.1651
-10.1744
-10.1543
-10.1007
-10.0099
-9.87796
-9.69943
-9.46808
-9.17887
-8.82794
-8.41198
-7.92861
-7.37663
-6.75627
-6.06929
-5.31907
-4.51057
-3.65017
-2.74552
-1.80519
-0.838425
0.145255
1.13635
2.12569
3.1047
4.06562
5.00162
5.9069
6.77675
7.60753
8.39657
9.14218
9.84342
10.5
11.1121
11.6801
12.2061
12.6948
13.1487
13.5672
13.9514
14.3031
14.6238
14.9156
15.1805
15.4205
15.6376
15.8336
16.0104
16.1695
16.3125
16.4409
16.5559
16.6589
16.7508
16.8328
16.9058
16.9706
17.0281
17.079
17.1238
17.1633
17.1979
17.2281
17.2544
17.2772
17.2969
17.3137
17.3279
17.3399
17.3499
17.358
17.3645
17.3695
17.3733
17.3759
17.3774
17.378
17.3778
17.3768
17.3751
17.3729
17.3701
17.3668
17.3631
17.3589
17.3543
17.3494
17.3442
17.3387
17.3329
17.3269
17.3205
17.3139
17.307
17.2999
17.2925
17.2849
17.277
17.2689
17.2606
17.252
17.2434
17.2346
17.2258
17.2171
17.2086
17.2007
17.1936
17.1878
17.1842
17.1839
17.1885
17.2006
17.2243
17.2649
17.3365
17.4147
-3.9974
-4.0104
-4.02312
-4.03171
-4.03889
-4.04666
-4.05599
-4.06755
-4.08197
-4.09984
-4.1217
-4.14801
-4.17913
-4.21533
-4.25681
-4.30372
-4.35613
-4.41411
-4.47764
-4.54672
-4.62129
-4.70127
-4.78658
-4.87712
-4.97278
-5.07344
-5.179
-5.28932
-5.40429
-5.52376
-5.64761
-5.77571
-5.90791
-6.04407
-6.18405
-6.32768
-6.47482
-6.62527
-6.77885
-6.93535
-7.09454
-7.25619
-7.42001
-7.58571
-7.75295
-7.92135
-8.0905
-8.25991
-8.42905
-8.59732
-8.76404
-8.92844
-9.08966
-9.24671
-9.3985
-9.54376
-9.68109
-9.80887
-9.9253
-10.0283
-10.1157
-10.1848
-10.2328
-10.2565
-10.2523
-10.2165
-10.1453
-10.0346
-9.87834
-9.67012
-9.4051
-9.07886
-8.68762
-8.2285
-7.69978
-7.10123
-6.43417
-5.70167
-4.90845
-4.06081
-3.16637
-2.23382
-1.27257
-0.292352
0.697114
1.68643
2.66679
3.63025
4.56983
5.47959
6.35473
7.1915
7.98714
8.73978
9.44831
10.112
10.7316
11.3086
11.8485
12.3531
12.8199
13.2506
13.6472
14.0117
14.3453
14.65
14.9276
15.1801
15.4093
15.617
15.8051
15.9752
16.1287
16.2671
16.3917
16.5038
16.6045
16.6948
16.7757
16.848
16.9127
16.9703
17.0215
17.067
17.1074
17.143
17.1745
17.2021
17.2263
17.2473
17.2656
17.2814
17.2949
17.3064
17.3161
17.3241
17.3306
17.3358
17.3398
17.3427
17.3446
17.3457
17.3459
17.3454
17.3443
17.3425
17.3402
17.3374
17.3342
17.3305
17.3264
17.3219
17.3171
17.3119
17.3064
17.3006
17.2945
17.288
17.2812
17.2742
17.2669
17.2593
17.2514
17.2434
17.2351
17.2267
17.2182
17.2098
17.2016
17.1938
17.1868
17.1811
17.1773
17.1766
17.1803
17.1904
17.2102
17.2422
17.2958
17.3392
-3.96519
-3.98297
-4.0014
-4.01442
-4.0257
-4.0377
-4.05129
-4.06704
-4.08545
-4.10701
-4.13217
-4.16133
-4.19483
-4.23296
-4.27595
-4.32396
-4.37711
-4.43549
-4.49913
-4.56804
-4.6422
-4.72158
-4.80611
-4.89573
-4.99036
-5.0899
-5.19427
-5.30335
-5.41704
-5.53523
-5.65781
-5.78465
-5.91563
-6.05063
-6.18951
-6.33213
-6.47834
-6.62798
-6.78087
-6.93682
-7.09561
-7.25702
-7.4208
-7.58667
-7.75431
-7.92339
-8.0935
-8.26419
-8.43498
-8.60528
-8.77448
-8.94186
-9.10661
-9.26782
-9.42446
-9.57535
-9.71915
-9.85436
-9.97925
-10.0919
-10.1901
-10.2715
-10.3331
-10.372
-10.3846
-10.3671
-10.3158
-10.2263
-10.092
-9.90616
-9.66372
-9.3597
-8.9897
-8.55021
-8.03897
-7.45523
-6.79999
-6.07612
-5.28834
-4.44309
-3.54831
-2.61309
-1.64729
-0.661126
0.335241
1.33203
2.32011
3.2913
4.23852
5.15564
6.03786
6.88137
7.68329
8.44167
9.15565
9.82534
10.4545
11.0451
11.5966
12.1094
12.584
13.0224
13.4267
13.7987
14.1401
14.4526
14.7381
14.9984
15.2354
15.451
15.6467
15.8241
15.9849
16.1304
16.2619
16.3806
16.4876
16.5841
16.6709
16.7489
16.8189
16.8817
16.9379
16.9881
17.0329
17.0729
17.1083
17.1398
17.1676
17.1921
17.2136
17.2324
17.2488
17.2631
17.2753
17.2857
17.2945
17.3019
17.3079
17.3127
17.3164
17.3191
17.3209
17.3219
17.3222
17.3218
17.3207
17.319
17.3168
17.3141
17.311
17.3074
17.3034
17.299
17.2942
17.2891
17.2836
17.2777
17.2715
17.265
17.2581
17.251
17.2435
17.2358
17.2278
17.2197
17.2115
17.2032
17.1951
17.1873
17.1802
17.1743
17.17
17.1682
17.1702
17.1773
17.1916
17.2137
17.2497
17.265
-3.94514
-3.96671
-3.98954
-4.00621
-4.02096
-4.03649
-4.0537
-4.07305
-4.09501
-4.11996
-4.14828
-4.18032
-4.21638
-4.25673
-4.3016
-4.35116
-4.40555
-4.46486
-4.52915
-4.59845
-4.67278
-4.7521
-4.8364
-4.92563
-5.01973
-5.11863
-5.22226
-5.33054
-5.44338
-5.56069
-5.68237
-5.80832
-5.93844
-6.07262
-6.21075
-6.3527
-6.49833
-6.64749
-6.80003
-6.95576
-7.11451
-7.27605
-7.44017
-7.60661
-7.77507
-7.94523
-8.11674
-8.28916
-8.46204
-8.63486
-8.80702
-8.97787
-9.14665
-9.31251
-9.47449
-9.63147
-9.7822
-9.92526
-10.059
-10.1817
-10.2912
-10.385
-10.4607
-10.5149
-10.5443
-10.5451
-10.5134
-10.4447
-10.3319
-10.1677
-9.94657
-9.66287
-9.31148
-8.88818
-8.39003
-7.81579
-7.16614
-6.44389
-5.65394
-4.80311
-3.89991
-2.95415
-1.97643
-0.977678
0.0313648
1.04044
2.03996
3.02156
3.97806
4.9031
5.79206
6.64101
7.4474
8.21014
8.93046
9.61063
10.2499
10.8472
11.4037
11.9209
12.4
12.8432
13.2522
13.629
13.9753
14.293
14.5838
14.8496
15.0921
15.3132
15.5145
15.6976
15.8639
16.0148
16.1516
16.2756
16.3877
16.4891
16.5807
16.6634
16.7379
16.8049
16.8652
16.9194
16.968
17.0115
17.0504
17.0851
17.116
17.1434
17.1678
17.1892
17.2082
17.2247
17.2392
17.2518
17.2626
17.2718
17.2796
17.2861
17.2914
17.2956
17.2988
17.3011
17.3026
17.3033
17.3033
17.3027
17.3015
17.2997
17.2973
17.2945
17.2913
17.2876
17.2835
17.2789
17.274
17.2686
17.2629
17.2568
17.2504
17.2436
17.2365
17.2291
17.2214
17.2135
17.2054
17.1972
17.1891
17.1812
17.1738
17.1673
17.1622
17.159
17.1587
17.1621
17.1703
17.1824
17.2025
17.1949
-3.94202
-3.96518
-3.99018
-4.00896
-4.02586
-4.0437
-4.06332
-4.08518
-4.10969
-4.1372
-4.16803
-4.20247
-4.24079
-4.28321
-4.32992
-4.3811
-4.43685
-4.49728
-4.56245
-4.6324
-4.70716
-4.78672
-4.87108
-4.96021
-5.05408
-5.15263
-5.25581
-5.36357
-5.47582
-5.59251
-5.71356
-5.83888
-5.9684
-6.10202
-6.23965
-6.38118
-6.52649
-6.67544
-6.8279
-6.98372
-7.14272
-7.30471
-7.4695
-7.63684
-7.80647
-7.97809
-8.15137
-8.32591
-8.5013
-8.67703
-8.85258
-9.02732
-9.20054
-9.37145
-9.53914
-9.70256
-9.86054
-10.0118
-10.1547
-10.2876
-10.4084
-10.5149
-10.6045
-10.6742
-10.7204
-10.7393
-10.727
-10.6787
-10.587
-10.4441
-10.2436
-9.97905
-9.6446
-9.23513
-8.74692
-8.17814
-7.52918
-6.80283
-6.00436
-5.14123
-4.22276
-3.25977
-2.26392
-1.24711
-0.220761
0.804311
1.81791
2.81153
3.77797
4.71042
5.60528
6.45923
7.27126
8.04285
8.77171
9.45682
10.0987
10.698
11.2562
11.7752
12.2564
12.7018
13.1132
13.4926
13.8417
14.1625
14.4567
14.726
14.9724
15.1974
15.4028
15.5899
15.7604
15.9155
16.0565
16.1846
16.3008
16.4063
16.5018
16.5882
16.6664
16.7371
16.8009
16.8584
16.9102
16.9567
16.9986
17.0361
17.0698
17.0998
17.1266
17.1504
17.1715
17.1902
17.2066
17.2211
17.2337
17.2446
17.254
17.2619
17.2687
17.2742
17.2787
17.2822
17.2848
17.2866
17.2876
17.2879
17.2875
17.2865
17.285
17.2829
17.2803
17.2772
17.2737
17.2697
17.2653
17.2604
17.2552
17.2495
17.2434
17.237
17.2302
17.223
17.2156
17.2078
17.1998
17.1916
17.1834
17.1753
17.1675
17.1603
17.154
17.1491
17.1461
17.1454
17.1474
17.15
17.1561
17.13
-3.95311
-3.97594
-4.00112
-4.02064
-4.03848
-4.0574
-4.07824
-4.10146
-4.12747
-4.15661
-4.18914
-4.22532
-4.26535
-4.30942
-4.35767
-4.41023
-4.46721
-4.52868
-4.5947
-4.66533
-4.74058
-4.82047
-4.905
-4.99416
-5.08793
-5.18628
-5.28918
-5.39658
-5.50844
-5.6247
-5.74531
-5.8702
-5.99932
-6.1326
-6.26994
-6.41127
-6.55648
-6.70547
-6.85811
-7.01426
-7.17379
-7.33652
-7.50228
-7.67083
-7.84195
-8.01536
-8.19075
-8.36775
-8.54599
-8.725
-8.90428
-9.08324
-9.26122
-9.43746
-9.61111
-9.7812
-9.94662
-10.1061
-10.2582
-10.4013
-10.5335
-10.6525
-10.7559
-10.8406
-10.9033
-10.94
-10.9467
-10.9184
-10.8475
-10.7254
-10.5449
-10.2988
-9.98025
-9.58298
-9.10241
-8.53598
-7.88375
-7.14861
-6.33635
-5.45531
-4.51588
-3.53018
-2.51133
-1.47249
-0.425579
0.617819
1.64647
2.65249
3.62918
4.56911
5.47219
6.33632
7.15615
7.9316
8.66198
9.34746
9.98907
10.588
11.1459
11.6645
12.1456
12.5912
13.0031
13.3832
13.7334
14.0556
14.3515
14.623
14.8717
15.0993
15.3074
15.4976
15.6711
15.8293
15.9736
16.1049
16.2244
16.333
16.4318
16.5214
16.6027
16.6764
16.7431
16.8035
16.858
16.9073
16.9517
16.9918
17.0277
17.0601
17.089
17.1149
17.138
17.1586
17.1768
17.1929
17.2071
17.2196
17.2304
17.2398
17.2478
17.2545
17.2602
17.2647
17.2684
17.2711
17.273
17.2742
17.2746
17.2744
17.2736
17.2722
17.2702
17.2677
17.2648
17.2613
17.2573
17.2529
17.2481
17.2428
17.2371
17.231
17.2244
17.2175
17.2102
17.2025
17.1946
17.1863
17.178
17.1695
17.1612
17.1531
17.1455
17.1387
17.1328
17.1279
17.1238
17.1175
17.1116
17.0704
-3.97384
-3.99474
-4.01842
-4.03748
-4.0552
-4.07417
-4.09526
-4.11893
-4.14559
-4.17555
-4.20905
-4.2463
-4.28745
-4.33262
-4.38194
-4.43549
-4.49336
-4.5556
-4.62226
-4.69339
-4.76901
-4.84915
-4.93381
-5.02298
-5.11668
-5.21487
-5.31755
-5.42468
-5.53623
-5.65217
-5.77247
-5.89707
-6.02594
-6.15903
-6.29626
-6.43757
-6.58288
-6.73209
-6.88512
-7.04183
-7.20212
-7.36583
-7.5328
-7.70282
-7.87569
-8.05115
-8.22891
-8.40866
-8.59001
-8.77257
-8.95583
-9.13925
-9.32219
-9.50395
-9.68372
-9.86058
-10.0335
-10.2012
-10.3625
-10.5156
-10.6587
-10.7899
-10.9065
-11.0058
-11.0843
-11.1381
-11.1631
-11.154
-11.103
-11.001
-10.8399
-10.6116
-10.3081
-9.92176
-9.44699
-8.88038
-8.22159
-7.47371
-6.64331
-5.73993
-4.77498
-3.76251
-2.71761
-1.65488
-0.58579
0.477064
1.5208
2.54012
3.53047
4.48293
5.39417
6.26206
7.08392
7.85951
8.58893
9.27282
9.91237
10.5091
11.0647
11.5812
12.0605
12.5045
12.9153
13.2947
13.6446
13.9669
14.2633
14.5357
14.7856
15.0148
15.2247
15.4169
15.5926
15.7532
15.8999
16.0338
16.1559
16.2672
16.3686
16.4609
16.5448
16.6211
16.6904
16.7532
16.8102
16.8619
16.9086
16.9508
16.9889
17.0233
17.0542
17.082
17.1068
17.1291
17.149
17.1667
17.1824
17.1962
17.2084
17.219
17.2282
17.2361
17.2428
17.2484
17.253
17.2566
17.2594
17.2614
17.2626
17.2631
17.2629
17.2621
17.2608
17.2588
17.2564
17.2534
17.2499
17.2459
17.2415
17.2366
17.2312
17.2253
17.2191
17.2123
17.2052
17.1976
17.1896
17.1813
17.1727
17.1638
17.1548
17.1458
17.1368
17.1279
17.1191
17.11
17.1
17.0857
17.0694
17.016
-3.99905
-4.01671
-4.03747
-4.05504
-4.07182
-4.09013
-4.11081
-4.13434
-4.16107
-4.19129
-4.22519
-4.26293
-4.30462
-4.35036
-4.40022
-4.45429
-4.5126
-4.57522
-4.64218
-4.71352
-4.78928
-4.86946
-4.95408
-5.04316
-5.13669
-5.23467
-5.3371
-5.44395
-5.55522
-5.67089
-5.79094
-5.91534
-6.04406
-6.17706
-6.3143
-6.45572
-6.60126
-6.75085
-6.90442
-7.06187
-7.22309
-7.38795
-7.5563
-7.72798
-7.90277
-8.08046
-8.26078
-8.44344
-8.62808
-8.81432
-9.00169
-9.18967
-9.37766
-9.56498
-9.75088
-9.93446
-10.1147
-10.2905
-10.4606
-10.6233
-10.7769
-10.9195
-11.0487
-11.1616
-11.255
-11.3248
-11.3669
-11.3758
-11.3435
-11.2603
-11.1175
-10.9059
-10.6163
-10.2396
-9.76865
-9.19934
-8.53092
-7.76688
-6.91505
-5.98632
-4.99268
-3.9509
-2.87881
-1.79235
-0.700756
0.384177
1.44732
2.48132
3.4808
4.43967
5.35449
6.22312
7.04431
7.81793
8.54447
9.22493
9.86075
10.4536
11.0055
11.5184
11.9945
12.4357
12.8441
13.2216
13.5702
13.8916
14.1876
14.4599
14.7103
14.9402
15.1513
15.3448
15.5221
15.6845
15.8331
15.9691
16.0933
16.2068
16.3105
16.405
16.4912
16.5698
16.6413
16.7064
16.7656
16.8193
16.8681
16.9123
16.9524
16.9886
17.0213
17.0508
17.0774
17.1012
17.1226
17.1417
17.1588
17.174
17.1874
17.1992
17.2095
17.2185
17.2262
17.2328
17.2383
17.2428
17.2464
17.2491
17.251
17.2522
17.2527
17.2526
17.2518
17.2504
17.2484
17.2459
17.2429
17.2393
17.2352
17.2307
17.2256
17.22
17.214
17.2074
17.2004
17.1929
17.1849
17.1764
17.1675
17.1582
17.1485
17.1384
17.1279
17.1169
17.1052
17.092
17.0765
17.0551
17.03
16.9665
-4.02361
-4.03711
-4.05382
-4.06908
-4.08443
-4.1017
-4.12168
-4.14476
-4.17124
-4.20134
-4.2352
-4.27294
-4.31467
-4.36045
-4.41034
-4.46442
-4.52272
-4.58528
-4.65215
-4.72335
-4.79893
-4.87889
-4.96325
-5.05204
-5.14525
-5.2429
-5.34499
-5.45152
-5.56248
-5.67787
-5.79768
-5.9219
-6.05051
-6.18348
-6.3208
-6.46241
-6.60827
-6.75834
-6.91255
-7.07082
-7.23307
-7.39918
-7.56901
-7.74242
-7.91923
-8.09922
-8.28216
-8.46778
-8.65573
-8.84566
-9.03711
-9.22959
-9.42254
-9.61531
-9.80715
-9.99722
-10.1845
-10.368
-10.5463
-10.718
-10.8814
-11.0346
-11.1753
-11.3007
-11.4075
-11.4919
-11.5496
-11.5748
-11.5589
-11.4922
-11.3656
-11.1688
-10.8911
-10.5214
-10.0517
-9.47686
-8.79603
-8.01339
-7.1385
-6.18426
-5.16258
-4.09009
-2.98798
-1.87326
-0.759041
0.342824
1.42004
2.4643
3.46953
4.4311
5.34611
6.21285
7.03073
7.80001
8.52158
9.19676
9.82722
10.4149
10.9618
11.47
11.9418
12.3792
12.7844
13.1592
13.5056
13.8254
14.1204
14.3921
14.6423
14.8725
15.0841
15.2786
15.4571
15.6208
15.771
15.9087
16.0348
16.1502
16.2558
16.3524
16.4406
16.5213
16.5948
16.6619
16.7231
16.7788
16.8295
16.8755
16.9174
16.9554
16.9898
17.0209
17.049
17.0744
17.0972
17.1177
17.1361
17.1525
17.1671
17.18
17.1914
17.2014
17.2101
17.2176
17.224
17.2293
17.2337
17.2372
17.2399
17.2417
17.2428
17.2433
17.243
17.2422
17.2407
17.2387
17.2361
17.2329
17.2292
17.225
17.2202
17.2149
17.2091
17.2027
17.1958
17.1883
17.1803
17.1717
17.1625
17.1527
17.1422
17.1311
17.1191
17.1059
17.0913
17.0742
17.0538
17.0259
16.9934
16.9217
-4.04306
-4.05186
-4.06375
-4.07623
-4.08999
-4.10621
-4.12542
-4.14793
-4.17394
-4.20361
-4.23707
-4.27441
-4.31572
-4.36107
-4.41053
-4.46416
-4.522
-4.58409
-4.65048
-4.7212
-4.79628
-4.87574
-4.95961
-5.0479
-5.14062
-5.2378
-5.33944
-5.44555
-5.55614
-5.6712
-5.79076
-5.91479
-6.04329
-6.17626
-6.31367
-6.4555
-6.60172
-6.75229
-6.90717
-7.0663
-7.22959
-7.39695
-7.56826
-7.74339
-7.92217
-8.10441
-8.2899
-8.47836
-8.66948
-8.86291
-9.05823
-9.25496
-9.45256
-9.65038
-9.84772
-10.0437
-10.2375
-10.4278
-10.6136
-10.7933
-10.9654
-11.1279
-11.2785
-11.4147
-11.5331
-11.6301
-11.7011
-11.74
-11.7373
-11.6836
-11.5699
-11.385
-11.1171
-10.7539
-10.2851
-9.7041
-9.00965
-8.20624
-7.30436
-6.31905
-5.26718
-4.16638
-3.03733
-1.89835
-0.764852
0.350368
1.43656
2.48581
3.49242
4.45253
5.36389
6.22542
7.03706
7.7995
8.51395
9.18202
9.8056
10.3867
10.9276
11.4303
11.8971
12.3302
12.7315
13.1032
13.447
13.7648
14.0583
14.3291
14.5788
14.809
15.0209
15.216
15.3954
15.5603
15.7119
15.851
15.9787
16.0959
16.2033
16.3018
16.3919
16.4744
16.5499
16.6189
16.6819
16.7394
16.7919
16.8398
16.8833
16.923
16.959
16.9917
17.0213
17.0481
17.0723
17.0941
17.1138
17.1314
17.1472
17.1612
17.1737
17.1847
17.1943
17.2027
17.21
17.2161
17.2213
17.2255
17.2288
17.2314
17.2331
17.2341
17.2344
17.2341
17.2331
17.2316
17.2294
17.2266
17.2233
17.2194
17.215
17.21
17.2044
17.1982
17.1914
17.1839
17.1758
17.167
17.1575
17.1472
17.136
17.1238
17.1103
17.0951
17.0777
17.057
17.032
16.9985
16.9595
16.8811
-4.05405
-4.058
-4.06481
-4.07436
-4.08661
-4.10183
-4.12025
-4.14204
-4.16735
-4.1963
-4.22901
-4.26557
-4.30608
-4.35062
-4.39925
-4.45204
-4.50904
-4.57031
-4.63589
-4.70581
-4.78011
-4.85881
-4.94195
-5.02954
-5.1216
-5.21815
-5.31922
-5.42481
-5.53494
-5.64962
-5.76886
-5.89267
-6.02104
-6.15397
-6.29146
-6.4335
-6.58007
-6.73113
-6.88667
-7.04662
-7.21091
-7.37947
-7.55219
-7.72895
-7.9096
-8.09397
-8.28184
-8.47295
-8.66702
-8.86369
-9.06257
-9.26319
-9.46502
-9.66744
-9.86973
-10.0711
-10.2705
-10.467
-10.6593
-10.846
-11.0256
-11.196
-11.3553
-11.5006
-11.629
-11.7367
-11.8196
-11.8695
-11.8767
-11.8333
-11.7298
-11.5539
-11.2923
-10.9317
-10.4599
-9.86878
-9.15678
-8.32922
-7.39812
-6.38086
-5.29776
-4.16986
-3.01821
-1.86159
-0.71581
0.406379
1.49506
2.54307
3.54547
4.49917
5.40258
6.25522
7.05752
7.81052
8.51575
9.17501
9.79034
10.3639
10.8979
11.3945
11.8559
12.2842
12.6815
13.0497
13.3907
13.7063
13.9982
14.268
14.5172
14.7472
14.9594
15.155
15.3352
15.5012
15.654
15.7946
15.9239
16.0427
16.1519
16.2521
16.3441
16.4284
16.5057
16.5765
16.6414
16.7007
16.7549
16.8044
16.8497
16.891
16.9286
16.9628
16.9939
17.0221
17.0476
17.0708
17.0917
17.1105
17.1274
17.1425
17.156
17.168
17.1786
17.1879
17.196
17.203
17.2089
17.2138
17.2179
17.2211
17.2234
17.225
17.2259
17.2261
17.2256
17.2245
17.2228
17.2205
17.2175
17.214
17.2098
17.2051
17.1997
17.1937
17.187
17.1796
17.1715
17.1625
17.1527
17.1419
17.13
17.1167
17.1017
17.0845
17.0645
17.0405
17.0113
16.9729
16.9284
16.8445
-4.05414
-4.05368
-4.0558
-4.06249
-4.07317
-4.08726
-4.10469
-4.12552
-4.14986
-4.1778
-4.20945
-4.24492
-4.28431
-4.3277
-4.37519
-4.42683
-4.48271
-4.54286
-4.60736
-4.67622
-4.74951
-4.82724
-4.90945
-4.99617
-5.08741
-5.18321
-5.28359
-5.38856
-5.49814
-5.61236
-5.73123
-5.85475
-5.98294
-6.11581
-6.25334
-6.39555
-6.54241
-6.69393
-6.85006
-7.01077
-7.17599
-7.34566
-7.51969
-7.69796
-7.88034
-8.06665
-8.25671
-8.45026
-8.64701
-8.84664
-9.04876
-9.2529
-9.45855
-9.66507
-9.87177
-10.0778
-10.2823
-10.4841
-10.6821
-10.8748
-11.0606
-11.2378
-11.4042
-11.5573
-11.6939
-11.8111
-11.9042
-11.9622
-11.976
-11.9402
-11.8438
-11.6732
-11.4131
-11.0482
-10.5653
-9.95594
-9.21931
-8.36256
-7.40032
-6.35273
-5.24272
-4.09339
-2.92641
-1.76058
-0.611285
0.509491
1.5928
2.63242
3.6243
4.56614
5.45699
6.29692
7.08674
7.82779
8.5218
9.17071
9.77664
10.3417
10.8682
11.3583
11.814
12.2375
12.6306
12.9954
13.3337
13.6473
13.9377
14.2065
14.4552
14.6852
14.8976
15.0939
15.275
15.4421
15.5962
15.7383
15.8691
15.9896
16.1005
16.2025
16.2963
16.3825
16.4616
16.5342
16.6009
16.6619
16.7179
16.7692
16.8161
16.8589
16.8981
16.9338
16.9664
16.996
17.0229
17.0474
17.0695
17.0895
17.1075
17.1238
17.1383
17.1513
17.1628
17.173
17.1819
17.1897
17.1964
17.2021
17.2069
17.2107
17.2137
17.2159
17.2173
17.2181
17.2181
17.2175
17.2162
17.2143
17.2118
17.2086
17.2048
17.2003
17.1952
17.1893
17.1828
17.1754
17.1672
17.1581
17.148
17.1368
17.1241
17.1098
17.0934
17.0744
17.0519
17.0249
16.992
16.9492
16.8999
16.8115
-4.0425
-4.03846
-4.03673
-4.04076
-4.04962
-4.06224
-4.07833
-4.09788
-4.12093
-4.14757
-4.17789
-4.212
-4.25
-4.292
-4.3381
-4.38837
-4.44289
-4.50174
-4.56496
-4.63261
-4.70472
-4.78135
-4.86252
-4.94826
-5.0386
-5.13356
-5.23318
-5.33748
-5.44647
-5.56018
-5.67864
-5.80184
-5.92982
-6.06257
-6.2001
-6.34243
-6.48954
-6.64142
-6.79806
-6.95943
-7.12546
-7.29611
-7.47128
-7.65087
-7.83476
-8.02279
-8.21475
-8.41042
-8.60951
-8.8117
-9.0166
-9.22377
-9.43266
-9.64267
-9.85306
-10.063
-10.2717
-10.4778
-10.6804
-10.8778
-11.0686
-11.251
-11.4228
-11.5816
-11.7247
-11.8495
-11.9497
-12.0123
-12.0299
-11.9984
-11.9051
-11.7343
-11.4687
-11.0912
-10.5879
-9.95121
-9.18252
-8.29216
-7.29818
-6.2236
-5.09327
-3.93123
-2.75901
-1.59461
-0.45228
0.657241
1.72626
2.74964
3.72428
4.6486
5.52223
6.34566
7.11998
7.84672
8.52771
9.16493
9.76047
10.3165
10.8351
11.3183
11.7683
12.1869
12.5761
12.9377
13.2735
13.5852
13.8744
14.1425
14.391
14.6211
14.8341
15.0312
15.2134
15.3818
15.5373
15.6809
15.8134
15.9357
16.0484
16.1522
16.2479
16.3359
16.417
16.4915
16.5599
16.6228
16.6805
16.7335
16.7821
16.8266
16.8674
16.9046
16.9386
16.9697
16.998
17.0237
17.0471
17.0683
17.0875
17.1048
17.1204
17.1343
17.1468
17.1579
17.1678
17.1764
17.1839
17.1903
17.1958
17.2003
17.2039
17.2067
17.2087
17.21
17.2106
17.2104
17.2096
17.2081
17.206
17.2032
17.1997
17.1956
17.1907
17.185
17.1786
17.1713
17.1631
17.1539
17.1436
17.1319
17.1185
17.1032
17.0855
17.0647
17.0401
17.0103
16.974
16.9275
16.874
16.7821
-4.02055
-4.0139
-4.00929
-4.01097
-4.01781
-4.02857
-4.04292
-4.06081
-4.08222
-4.10721
-4.13588
-4.16833
-4.20468
-4.24504
-4.28952
-4.33821
-4.3912
-4.44857
-4.51039
-4.5767
-4.64755
-4.72299
-4.80304
-4.88775
-4.97714
-5.07124
-5.17007
-5.27366
-5.38204
-5.49522
-5.61323
-5.73608
-5.86379
-5.99638
-6.13385
-6.27621
-6.42347
-6.57562
-6.73264
-6.89451
-7.06117
-7.23259
-7.40867
-7.58933
-7.77443
-7.96383
-8.15733
-8.3547
-8.55567
-8.75992
-8.96706
-9.17663
-9.3881
-9.60084
-9.81413
-10.0271
-10.2389
-10.4483
-10.6541
-10.8548
-11.0489
-11.2346
-11.4098
-11.5723
-11.7202
-11.8504
-11.9522
-12.0149
-12.0347
-12.0044
-11.9092
-11.731
-11.4501
-11.0481
-10.5121
-9.8372
-9.02895
-8.10211
-7.07845
-5.98338
-4.8426
-3.67976
-2.51507
-1.36482
-0.241461
0.84594
1.89113
2.89012
3.84067
4.74186
5.59373
6.39705
7.15308
7.86338
8.52976
9.15414
9.73854
10.2849
10.7954
11.2718
11.7161
12.13
12.5155
12.8742
13.2079
13.5182
13.8066
14.0744
14.323
14.5537
14.7675
14.9657
15.1492
15.3191
15.4763
15.6216
15.756
15.8801
15.9948
16.1006
16.1983
16.2883
16.3713
16.4477
16.5181
16.5829
16.6424
16.6972
16.7475
16.7937
16.836
16.8749
16.9104
16.9429
16.9725
16.9996
17.0243
17.0467
17.0671
17.0855
17.1022
17.1171
17.1306
17.1426
17.1533
17.1628
17.1711
17.1783
17.1845
17.1897
17.194
17.1974
17.2
17.2019
17.2029
17.2033
17.203
17.2019
17.2002
17.1978
17.1947
17.1908
17.1862
17.1808
17.1745
17.1674
17.1593
17.15
17.1394
17.1272
17.1133
17.0971
17.0781
17.0558
17.0292
16.9969
16.9577
16.9078
16.8507
16.7559
-3.99088
-3.98242
-3.97562
-3.97509
-3.97966
-3.98816
-4.0003
-4.01604
-4.03534
-4.05825
-4.08487
-4.1153
-4.14968
-4.18813
-4.23077
-4.2777
-4.32901
-4.3848
-4.44512
-4.51003
-4.57959
-4.65382
-4.73277
-4.81646
-4.90492
-4.99817
-5.09624