/*--------------------------------*- C++ -*----------------------------------*\
| =========                 |                                                 |
| \\      /  F ield         | OpenFOAM: The Open Source CFD Toolbox           |
|  \\    /   O peration     | Version:  1.4.2                                 |
|   \\  /    A nd           | Web:      http://www.openfoam.org               |
|    \\/     M anipulation  |                                                 |
\*---------------------------------------------------------------------------*/
FoamFile
{
    version     2.0;
    format      ascii;
    class       surfaceScalarField;
    object      phi;
    location    "350";
}
// * * * * * * * * * * * * * * * * * * * * * * * * * * * * * * * * * * * * * //

dimensions      [0 3 -1 0 0 0 0];

internalField   nonuniform List<scalar> 
24170
(
3.03916e-06
9.47299e-08
2.96653e-06
7.26381e-08
2.90184e-06
6.46912e-08
2.84051e-06
6.13275e-08
2.78262e-06
5.78885e-08
2.7284e-06
5.4219e-08
2.67777e-06
5.06294e-08
2.63057e-06
4.72004e-08
2.58664e-06
4.39251e-08
2.54585e-06
4.07974e-08
2.50803e-06
3.78142e-08
2.47307e-06
3.49664e-08
2.44083e-06
3.22371e-08
2.41124e-06
2.95936e-08
2.38427e-06
2.69684e-08
2.36006e-06
2.4205e-08
2.33906e-06
2.10026e-08
1.15863e-08
2.32748e-06
3.46197e-06
8.92053e-08
3.45379e-06
8.08171e-08
3.44427e-06
7.42114e-08
3.43354e-06
7.20571e-08
3.42185e-06
6.95717e-08
3.40961e-06
6.64619e-08
3.39703e-06
6.32109e-08
3.38425e-06
5.99809e-08
3.37139e-06
5.67865e-08
3.35856e-06
5.36329e-08
3.34585e-06
5.05261e-08
3.33335e-06
4.746e-08
3.32118e-06
4.44096e-08
3.30946e-06
4.13176e-08
3.29837e-06
3.80574e-08
3.28823e-06
3.43406e-08
3.27982e-06
2.94146e-08
2.07641e-08
3.27064e-06
3.8243e-06
7.70978e-08
3.82623e-06
7.88942e-08
3.82545e-06
7.49884e-08
3.82379e-06
7.37137e-08
3.82148e-06
7.18835e-08
3.81868e-06
6.92583e-08
3.81554e-06
6.6346e-08
3.81216e-06
6.33603e-08
3.80861e-06
6.03465e-08
3.80492e-06
5.73227e-08
3.80115e-06
5.42993e-08
3.79734e-06
5.12691e-08
3.79355e-06
4.81989e-08
3.78985e-06
4.50164e-08
3.78633e-06
4.15769e-08
3.78307e-06
3.75986e-08
3.77993e-06
3.25573e-08
2.54779e-08
3.77522e-06
4.21687e-06
6.47889e-08
4.22203e-06
7.37293e-08
4.22413e-06
7.28954e-08
4.22527e-06
7.25711e-08
4.22583e-06
7.13159e-08
4.22596e-06
6.9132e-08
4.22578e-06
6.65287e-08
4.22538e-06
6.37545e-08
4.22484e-06
6.08887e-08
4.2242e-06
5.79672e-08
4.22349e-06
5.50081e-08
4.22275e-06
5.20071e-08
4.22202e-06
4.89315e-08
4.22133e-06
4.57109e-08
4.22069e-06
4.22183e-08
4.22004e-06
3.82446e-08
4.21908e-06
3.35171e-08
2.77881e-08
4.21677e-06
4.64866e-06
5.34327e-08
4.65535e-06
6.70461e-08
4.65912e-06
6.91209e-08
4.66179e-06
6.9899e-08
4.66383e-06
6.92761e-08
4.66541e-06
6.75542e-08
4.66666e-06
6.52795e-08
4.66768e-06
6.27348e-08
4.66853e-06
6.00326e-08
4.66927e-06
5.72284e-08
4.66993e-06
5.43504e-08
4.67054e-06
5.14013e-08
4.67112e-06
4.83555e-08
4.67167e-06
4.51567e-08
4.67218e-06
4.17123e-08
4.67253e-06
3.78974e-08
4.67242e-06
3.36194e-08
2.89483e-08
4.67127e-06
5.12452e-06
4.35084e-08
5.13189e-06
5.96748e-08
5.13686e-06
6.41506e-08
5.14072e-06
6.60365e-08
5.14387e-06
6.61316e-08
5.14648e-06
6.49415e-08
5.14871e-06
6.30475e-08
5.15067e-06
6.07722e-08
5.15244e-06
5.82671e-08
5.15406e-06
5.56118e-08
5.15556e-06
5.28485e-08
5.15697e-06
4.99902e-08
5.1583e-06
4.70238e-08
5.15955e-06
4.39133e-08
5.16066e-06
4.06048e-08
5.16151e-06
3.70449e-08
5.16188e-06
3.32475e-08
2.93922e-08
5.16144e-06
5.64935e-06
3.51673e-08
5.65685e-06
5.217e-08
5.66261e-06
5.8396e-08
5.6674e-06
6.12448e-08
5.67148e-06
6.20475e-08
5.675e-06
6.14236e-08
5.67809e-06
5.99612e-08
5.68085e-06
5.80103e-08
5.68336e-06
5.57532e-08
5.68568e-06
5.3293e-08
5.68784e-06
5.06887e-08
5.68987e-06
4.79678e-08
5.69176e-06
4.51343e-08
5.69349e-06
4.21758e-08
5.69503e-06
3.90744e-08
5.69624e-06
3.58281e-08
5.69699e-06
3.25019e-08
2.92869e-08
5.6971e-06
4.41118e-06
3.0104e-08
4.41642e-06
4.69229e-08
4.42085e-06
5.39642e-08
4.42469e-06
5.74091e-08
4.42807e-06
5.86659e-08
4.43107e-06
5.84271e-08
4.43375e-06
5.72802e-08
4.43618e-06
5.5581e-08
4.4384e-06
5.35267e-08
4.44046e-06
5.12342e-08
4.44238e-06
4.87735e-08
4.44416e-06
4.61828e-08
4.44582e-06
4.34788e-08
4.44733e-06
4.06655e-08
4.44866e-06
3.77472e-08
4.44974e-06
3.47476e-08
4.4505e-06
3.17468e-08
2.8914e-08
4.45087e-06
5.14456e-06
2.53966e-08
5.14998e-06
4.15085e-08
5.15488e-06
4.90649e-08
5.15931e-06
5.29791e-08
5.16332e-06
5.46518e-08
5.16696e-06
5.47935e-08
5.17026e-06
5.39745e-08
5.17329e-06
5.25504e-08
5.17609e-06
5.07288e-08
5.17869e-06
4.86373e-08
5.1811e-06
4.6356e-08
5.18335e-06
4.3934e-08
5.18543e-06
4.14004e-08
5.18732e-06
3.87752e-08
5.18899e-06
3.60814e-08
5.19038e-06
3.33602e-08
5.19143e-06
3.06952e-08
2.82283e-08
5.19212e-06
6.00007e-06
2.11224e-08
6.00552e-06
3.60601e-08
6.01077e-06
4.38067e-08
6.01573e-06
4.80192e-08
6.02036e-06
5.00284e-08
6.02463e-06
5.0517e-08
6.02859e-06
5.00182e-08
6.03226e-06
4.88787e-08
6.03568e-06
4.73101e-08
6.03887e-06
4.54474e-08
6.04185e-06
4.33789e-08
6.04462e-06
4.11632e-08
6.04718e-06
3.8841e-08
6.04951e-06
3.64454e-08
6.05158e-06
3.4013e-08
6.05335e-06
3.15946e-08
6.05477e-06
2.92677e-08
2.71457e-08
6.05586e-06
6.99807e-06
1.73181e-08
7.00343e-06
3.07047e-08
7.00893e-06
3.83012e-08
7.01433e-06
4.26201e-08
7.01951e-06
4.48523e-08
7.0244e-06
4.56247e-08
7.029e-06
4.54162e-08
7.03332e-06
4.45539e-08
7.03739e-06
4.32466e-08
7.0412e-06
4.16318e-08
7.04478e-06
3.98033e-08
7.04812e-06
3.78269e-08
7.05121e-06
3.5752e-08
7.05403e-06
3.36215e-08
7.05657e-06
3.14794e-08
7.05878e-06
2.93782e-08
7.06067e-06
2.73841e-08
2.5583e-08
7.06223e-06
8.16236e-06
1.39692e-08
8.16752e-06
2.55445e-08
8.17317e-06
3.26574e-08
8.17891e-06
3.68795e-08
8.18456e-06
3.91987e-08
8.19002e-06
4.01675e-08
8.19523e-06
4.01994e-08
8.2002e-06
3.95906e-08
8.2049e-06
3.85397e-08
8.20935e-06
3.71815e-08
8.21355e-06
3.56113e-08
8.21747e-06
3.38988e-08
8.22113e-06
3.20987e-08
8.22449e-06
3.02582e-08
8.22755e-06
2.84234e-08
8.23029e-06
2.66432e-08
8.2327e-06
2.49699e-08
2.34655e-08
8.23482e-06
9.52068e-06
1.10207e-08
9.52558e-06
2.06392e-08
9.53127e-06
2.69654e-08
9.53727e-06
3.0883e-08
9.54333e-06
3.31412e-08
9.54929e-06
3.42025e-08
9.55508e-06
3.44093e-08
9.56065e-06
3.40173e-08
9.56598e-06
3.32065e-08
9.57106e-06
3.21034e-08
9.57587e-06
3.08002e-08
9.58041e-06
2.93661e-08
9.58465e-06
2.78567e-08
9.58859e-06
2.63191e-08
9.59222e-06
2.47966e-08
9.59553e-06
2.33309e-08
9.59854e-06
2.19611e-08
2.07296e-08
9.60128e-06
1.11053e-05
8.39187e-09
1.111e-05
1.59952e-08
1.11157e-05
2.12802e-08
1.11219e-05
2.4688e-08
1.11283e-05
2.67322e-08
1.11347e-05
2.77725e-08
1.1141e-05
2.8078e-08
1.11472e-05
2.78562e-08
1.11531e-05
2.72604e-08
1.11588e-05
2.64026e-08
1.11643e-05
2.53662e-08
1.11694e-05
2.42155e-08
1.11743e-05
2.30023e-08
1.11788e-05
2.17694e-08
1.11831e-05
2.05542e-08
1.1187e-05
1.93897e-08
1.11907e-05
1.83036e-08
1.7324e-08
1.11941e-05
1.2954e-05
5.98861e-09
1.29585e-05
1.15612e-08
1.29641e-05
1.56034e-08
1.29705e-05
1.83066e-08
1.29773e-05
1.99836e-08
1.29842e-05
2.08855e-08
1.2991e-05
2.12067e-08
1.29978e-05
2.11015e-08
1.30044e-05
2.06892e-08
1.30107e-05
2.00602e-08
1.30168e-05
1.92837e-08
1.30226e-05
1.8414e-08
1.30281e-05
1.74947e-08
1.30333e-05
1.65614e-08
1.30382e-05
1.56436e-08
1.30428e-05
1.47654e-08
1.30472e-05
1.39458e-08
1.32031e-08
1.30513e-05
1.51107e-05
3.70472e-09
1.51151e-05
7.22261e-09
1.51208e-05
9.8589e-09
1.51274e-05
1.16797e-08
1.51346e-05
1.28422e-08
1.5142e-05
1.34908e-08
1.51494e-05
1.37438e-08
1.51568e-05
1.36989e-08
1.51641e-05
1.34349e-08
1.51711e-05
1.30143e-08
1.51779e-05
1.24866e-08
1.51845e-05
1.18914e-08
1.51907e-05
1.12607e-08
1.51966e-05
1.06204e-08
1.52023e-05
9.99099e-09
1.52077e-05
9.38883e-09
1.52128e-05
8.82589e-09
8.3145e-09
1.52177e-05
1.76267e-05
1.40724e-09
1.76312e-05
2.77644e-09
1.76372e-05
3.84929e-09
1.76442e-05
4.62736e-09
1.76519e-05
5.14349e-09
1.766e-05
5.4376e-09
1.76682e-05
5.54923e-09
1.76764e-05
5.5154e-09
1.76844e-05
5.36941e-09
1.76923e-05
5.1403e-09
1.76999e-05
4.85296e-09
1.77073e-05
4.52854e-09
1.77144e-05
4.18478e-09
1.77212e-05
3.83623e-09
1.77277e-05
3.49449e-09
1.77339e-05
3.16842e-09
1.77398e-05
2.86476e-09
2.59201e-09
1.77456e-05
1.78284e-05
-7.99333e-10
1.78327e-05
-1.51376e-09
1.78385e-05
-1.97097e-09
1.78454e-05
-2.22371e-09
1.78529e-05
-2.35485e-09
1.78607e-05
-2.42425e-09
1.78687e-05
-2.46806e-09
1.78768e-05
-2.50772e-09
1.78847e-05
-2.55454e-09
1.78924e-05
-2.61263e-09
1.79e-05
-2.68149e-09
1.79073e-05
-2.75813e-09
1.79143e-05
-2.8385e-09
1.7921e-05
-2.91846e-09
1.79275e-05
-2.99429e-09
1.79338e-05
-3.06291e-09
1.79397e-05
-3.12142e-09
-3.164e-09
1.79455e-05
1.58834e-05
-2.89442e-09
1.58874e-05
-5.53044e-09
1.58928e-05
-7.3358e-09
1.5899e-05
-8.45798e-09
1.59058e-05
-9.11532e-09
1.59128e-05
-9.46554e-09
1.592e-05
-9.61375e-09
1.59271e-05
-9.6337e-09
1.59341e-05
-9.57566e-09
1.5941e-05
-9.47177e-09
1.59477e-05
-9.34169e-09
1.59541e-05
-9.19711e-09
1.59603e-05
-9.04482e-09
1.59663e-05
-8.88865e-09
1.5972e-05
-8.73072e-09
1.59775e-05
-8.57212e-09
1.59828e-05
-8.41259e-09
-8.24835e-09
1.59879e-05
1.41508e-05
-5.07993e-09
1.41549e-05
-9.59399e-09
1.41602e-05
-1.25833e-08
1.41661e-05
-1.43981e-08
1.41724e-05
-1.54391e-08
1.41789e-05
-1.59632e-08
1.41854e-05
-1.61398e-08
1.41919e-05
-1.60907e-08
1.41982e-05
-1.58999e-08
1.42044e-05
-1.56221e-08
1.42103e-05
-1.52927e-08
1.42161e-05
-1.49344e-08
1.42216e-05
-1.4562e-08
1.42269e-05
-1.4185e-08
1.42319e-05
-1.38099e-08
1.42368e-05
-1.34407e-08
1.42415e-05
-1.30792e-08
-1.27235e-08
1.4246e-05
1.26075e-05
-7.54297e-09
1.26118e-05
-1.39467e-08
1.26172e-05
-1.79218e-08
1.2623e-05
-2.02226e-08
1.2629e-05
-2.14862e-08
1.26351e-05
-2.2061e-08
1.26412e-05
-2.21754e-08
1.26471e-05
-2.19953e-08
1.26528e-05
-2.16322e-08
1.26583e-05
-2.11578e-08
1.26637e-05
-2.06181e-08
1.26688e-05
-2.00436e-08
1.26737e-05
-1.94542e-08
1.26784e-05
-1.88632e-08
1.26828e-05
-1.82797e-08
1.26871e-05
-1.77101e-08
1.26912e-05
-1.71576e-08
-1.66224e-08
1.26951e-05
1.12328e-05
-1.05001e-08
1.12376e-05
-1.87863e-08
1.12431e-05
-2.34616e-08
1.12489e-05
-2.60014e-08
1.12547e-05
-2.73083e-08
1.12605e-05
-2.77973e-08
1.1266e-05
-2.775e-08
1.12714e-05
-2.73711e-08
1.12766e-05
-2.6792e-08
1.12815e-05
-2.60946e-08
1.12862e-05
-2.53311e-08
1.12907e-05
-2.45357e-08
1.1295e-05
-2.37305e-08
1.12991e-05
-2.29306e-08
1.13029e-05
-2.21462e-08
1.13066e-05
-2.13849e-08
1.13101e-05
-2.06516e-08
-1.99486e-08
1.13134e-05
1.00083e-05
-1.42213e-08
1.00138e-05
-2.42571e-08
1.00196e-05
-2.92095e-08
1.00253e-05
-3.16976e-08
1.00308e-05
-3.28517e-08
1.00361e-05
-3.31105e-08
1.00412e-05
-3.28018e-08
1.00459e-05
-3.21604e-08
1.00505e-05
-3.13273e-08
1.00548e-05
-3.03869e-08
1.00588e-05
-2.93921e-08
1.00627e-05
-2.83769e-08
1.00663e-05
-2.73628e-08
1.00697e-05
-2.63641e-08
1.0073e-05
-2.53905e-08
1.0076e-05
-2.44497e-08
1.00789e-05
-2.3548e-08
-2.26913e-08
1.00817e-05
8.91791e-06
-1.90309e-08
8.92406e-06
-3.04048e-08
8.92989e-06
-3.50408e-08
8.93534e-06
-3.71537e-08
8.94045e-06
-3.79553e-08
8.94519e-06
-3.78489e-08
8.94958e-06
-3.71964e-08
8.95367e-06
-3.62478e-08
8.95748e-06
-3.51408e-08
8.96104e-06
-3.39538e-08
8.96439e-06
-3.27351e-08
8.96752e-06
-3.15145e-08
8.97047e-06
-3.03099e-08
8.97324e-06
-2.91324e-08
8.97584e-06
-2.79896e-08
8.97827e-06
-2.68877e-08
8.98056e-06
-2.5834e-08
-2.4839e-08
8.98271e-06
7.94691e-06
-2.52692e-08
7.95361e-06
-3.71064e-08
7.95924e-06
-4.06676e-08
7.96417e-06
-4.20871e-08
7.96858e-06
-4.23665e-08
7.97253e-06
-4.17983e-08
7.97609e-06
-4.07585e-08
7.97934e-06
-3.94931e-08
7.98232e-06
-3.81227e-08
7.98507e-06
-3.6711e-08
7.98763e-06
-3.5296e-08
7.99002e-06
-3.39004e-08
7.99225e-06
-3.25366e-08
7.99432e-06
-3.12109e-08
7.99626e-06
-2.99267e-08
7.99806e-06
-2.86867e-08
7.99972e-06
-2.7498e-08
-2.63761e-08
8.00126e-06
7.08227e-06
-3.32051e-08
7.08914e-06
-4.39759e-08
7.09409e-06
-4.562e-08
7.09811e-06
-4.61057e-08
7.10152e-06
-4.57754e-08
7.10444e-06
-4.47224e-08
7.10699e-06
-4.33101e-08
7.10926e-06
-4.17612e-08
7.11131e-06
-4.01674e-08
7.11317e-06
-3.85716e-08
7.11487e-06
-3.69996e-08
7.11643e-06
-3.54663e-08
7.11788e-06
-3.39787e-08
7.1192e-06
-3.25381e-08
7.12042e-06
-3.11425e-08
7.12152e-06
-2.97888e-08
7.1225e-06
-2.84787e-08
-2.72264e-08
7.12335e-06
6.31221e-06
-4.2902e-08
6.31843e-06
-5.01926e-08
6.32204e-06
-4.92346e-08
6.32468e-06
-4.87455e-08
6.32674e-06
-4.78337e-08
6.32836e-06
-4.63388e-08
6.32965e-06
-4.4603e-08
6.33071e-06
-4.28178e-08
6.33158e-06
-4.10436e-08
6.33232e-06
-3.93042e-08
6.33293e-06
-3.76146e-08
6.33345e-06
-3.59825e-08
6.33388e-06
-3.44096e-08
6.33423e-06
-3.28924e-08
6.33451e-06
-3.14231e-08
6.33471e-06
-2.99886e-08
6.33481e-06
-2.8576e-08
-2.7174e-08
6.33476e-06
5.62589e-06
-5.38893e-08
5.62978e-06
-5.40796e-08
5.63102e-06
-5.04791e-08
5.63146e-06
-4.91843e-08
5.63135e-06
-4.77209e-08
5.63083e-06
-4.58223e-08
5.63005e-06
-4.38183e-08
5.62908e-06
-4.18544e-08
5.628e-06
-3.99563e-08
5.62682e-06
-3.81287e-08
5.62558e-06
-3.63755e-08
5.6243e-06
-3.46977e-08
5.62298e-06
-3.30921e-08
5.62164e-06
-3.15517e-08
5.62028e-06
-3.0064e-08
5.61889e-06
-2.86046e-08
5.61745e-06
-2.71326e-08
-2.55261e-08
5.6158e-06
5.01056e-06
-6.21389e-08
5.00704e-06
-5.05649e-08
5.00208e-06
-4.55119e-08
4.99643e-06
-4.35325e-08
4.99027e-06
-4.15591e-08
4.98386e-06
-3.94125e-08
4.97736e-06
-3.73153e-08
4.97084e-06
-3.53361e-08
4.96435e-06
-3.34694e-08
4.95793e-06
-3.17048e-08
4.95159e-06
-3.00364e-08
4.94535e-06
-2.84587e-08
4.93922e-06
-2.69654e-08
4.93322e-06
-2.55487e-08
4.92735e-06
-2.4197e-08
4.92163e-06
-2.28851e-08
4.91605e-06
-2.15544e-08
-1.97634e-08
4.91029e-06
4.39441e-06
4.34385e-06
4.29834e-06
4.2548e-06
4.21325e-06
4.17383e-06
4.13652e-06
4.10118e-06
4.06771e-06
4.03601e-06
4.00597e-06
3.97751e-06
3.95055e-06
3.925e-06
3.9008e-06
3.87792e-06
3.85636e-06
3.8366e-06
3.969e-08
-3.9691e-08
7.22986e-08
-3.25916e-08
9.08388e-08
-1.85438e-08
9.29654e-08
-2.11462e-09
7.86431e-08
1.43354e-08
4.85843e-08
3.00721e-08
4.10891e-09
4.44913e-08
-5.26193e-08
5.67485e-08
-1.17685e-07
6.50846e-08
-1.88497e-07
7.08255e-08
-2.63507e-07
7.50196e-08
-3.4172e-07
7.82184e-08
-4.2246e-07
8.0744e-08
-5.05316e-07
8.28589e-08
-5.89886e-07
8.45715e-08
-6.75749e-07
8.58637e-08
-7.62595e-07
8.68453e-08
-8.50178e-07
8.75796e-08
-9.38291e-07
8.81084e-08
-1.02676e-06
8.84655e-08
-1.11545e-06
8.86801e-08
-1.20423e-06
8.87781e-08
-1.29302e-06
8.87823e-08
-1.38174e-06
8.87124e-08
-1.47033e-06
8.85849e-08
-1.55875e-06
8.84136e-08
-1.64696e-06
8.821e-08
-1.73494e-06
8.79831e-08
-1.82268e-06
8.77404e-08
-1.91016e-06
8.74876e-08
-1.99738e-06
8.72289e-08
-2.08434e-06
8.69673e-08
-2.17104e-06
8.67046e-08
-2.25747e-06
8.64419e-08
-2.34365e-06
8.61796e-08
-2.42956e-06
8.59174e-08
-2.51521e-06
8.56542e-08
-2.6006e-06
8.53881e-08
-2.68571e-06
8.51166e-08
-2.77054e-06
8.48364e-08
-2.85508e-06
8.45435e-08
-2.93932e-06
8.42335e-08
-3.02322e-06
8.39008e-08
-3.10676e-06
8.35394e-08
-3.18991e-06
8.31423e-08
-3.27262e-06
8.27014e-08
-3.35483e-06
8.22076e-08
-3.43649e-06
8.16501e-08
-3.51751e-06
8.10168e-08
-3.59781e-06
8.02936e-08
-3.67728e-06
7.94646e-08
-3.7558e-06
7.85115e-08
-3.83322e-06
7.74141e-08
-3.90937e-06
7.61488e-08
-3.98406e-06
7.46891e-08
-4.05707e-06
7.30051e-08
-4.12813e-06
7.10626e-08
-4.19695e-06
6.88235e-08
-4.2632e-06
6.62447e-08
-4.32647e-06
6.32787e-08
-4.38634e-06
5.98732e-08
-4.44232e-06
5.59718e-08
-4.49383e-06
5.15142e-08
-4.54027e-06
4.64381e-08
-4.58096e-06
4.06805e-08
-4.61514e-06
3.4178e-08
-4.64202e-06
2.6868e-08
-4.66072e-06
1.86918e-08
-4.67033e-06
9.60745e-09
-4.66991e-06
-4.21432e-10
-4.65858e-06
-1.1335e-08
-4.63556e-06
-2.30234e-08
-4.60015e-06
-3.5415e-08
-4.55176e-06
-4.83916e-08
-4.48996e-06
-6.18006e-08
-4.41449e-06
-7.54607e-08
-4.32532e-06
-8.91699e-08
-4.2226e-06
-1.02714e-07
-4.10672e-06
-1.15878e-07
-3.97826e-06
-1.28453e-07
-3.838e-06
-1.40248e-07
-3.6869e-06
-1.51094e-07
-3.52604e-06
-1.60856e-07
-3.35661e-06
-1.6943e-07
-3.17986e-06
-1.76747e-07
-2.99709e-06
-1.82773e-07
-2.80958e-06
-1.87506e-07
-2.6186e-06
-1.90974e-07
-2.42537e-06
-1.9323e-07
-2.23103e-06
-1.94347e-07
-2.03661e-06
-1.94412e-07
-1.84309e-06
-1.93526e-07
-1.6513e-06
-1.91788e-07
-1.46199e-06
-1.89305e-07
-1.27581e-06
-1.86176e-07
-1.09331e-06
-1.82493e-07
-9.14959e-07
-1.78343e-07
-7.41173e-07
-1.73778e-07
-5.72298e-07
-1.68868e-07
-4.08487e-07
-1.63801e-07
-2.49894e-07
-1.5858e-07
-9.59086e-08
-1.53978e-07
5.36966e-08
-1.49599e-07
1.98001e-07
-1.44299e-07
3.366e-07
-1.38599e-07
4.69449e-07
-1.32841e-07
5.96641e-07
-1.27187e-07
7.18309e-07
-1.21668e-07
8.34616e-07
-1.1631e-07
9.45734e-07
-1.11124e-07
1.05184e-06
-1.06116e-07
1.15312e-06
-1.01288e-07
1.24975e-06
-9.66386e-08
1.3419e-06
-9.21653e-08
1.42975e-06
-8.78649e-08
1.51347e-06
-8.37335e-08
1.59323e-06
-7.97668e-08
1.66918e-06
-7.59602e-08
1.74148e-06
-7.23089e-08
1.81028e-06
-6.88078e-08
1.87573e-06
-6.54515e-08
1.93797e-06
-6.22351e-08
1.99713e-06
-5.91543e-08
2.05335e-06
-5.62048e-08
2.10674e-06
-5.33817e-08
2.15743e-06
-5.06795e-08
2.20553e-06
-4.80931e-08
2.25116e-06
-4.56181e-08
2.29442e-06
-4.32498e-08
2.3354e-06
-4.09834e-08
2.37422e-06
-3.88143e-08
2.41096e-06
-3.6738e-08
2.44571e-06
-3.47506e-08
2.47856e-06
-3.28488e-08
2.50959e-06
-3.10292e-08
2.53888e-06
-2.92884e-08
2.5665e-06
-2.7623e-08
2.59252e-06
-2.60296e-08
2.61703e-06
-2.4505e-08
2.64007e-06
-2.30464e-08
2.66172e-06
-2.16511e-08
2.68203e-06
-2.0317e-08
2.70107e-06
-1.90414e-08
2.71889e-06
-1.78217e-08
2.73554e-06
-1.66551e-08
2.75107e-06
-1.55392e-08
2.76554e-06
-1.44722e-08
2.779e-06
-1.34526e-08
2.79148e-06
-1.24793e-08
2.80303e-06
-1.15505e-08
2.81369e-06
-1.06643e-08
2.8235e-06
-9.81854e-09
2.83251e-06
-9.01136e-09
2.84075e-06
-8.24056e-09
2.84825e-06
-7.50422e-09
2.85505e-06
-6.80097e-09
2.86118e-06
-6.1301e-09
2.86667e-06
-5.49043e-09
2.87156e-06
-4.87978e-09
2.87586e-06
-4.29577e-09
2.8796e-06
-3.73682e-09
2.8828e-06
-3.20034e-09
2.88548e-06
-2.6798e-09
2.88764e-06
-2.1678e-09
2.8893e-06
-1.66094e-09
2.89046e-06
-1.15304e-09
2.89108e-06
-6.29987e-10
2.89117e-06
-8.72341e-11
2.89067e-06
4.99964e-10
2.88948e-06
1.18396e-09
2.88748e-06
2.00813e-09
2.88443e-06
3.04826e-09
2.88e-06
4.42861e-09
2.87366e-06
6.33989e-09
2.86451e-06
9.14246e-09
2.85101e-06
1.35018e-08
2.83023e-06
2.07724e-08
2.79575e-06
3.44792e-08
2.73186e-06
6.38872e-08
1.48369e-07
2.58349e-06
1.25404e-08
-5.22243e-08
7.719e-09
-2.77547e-08
-1.30163e-08
2.18625e-09
-4.6292e-08
3.11544e-08
-8.85595e-08
5.65911e-08
-1.37265e-07
7.87621e-08
-1.90643e-07
9.78479e-08
-2.47657e-07
1.1374e-07
-3.0903e-07
1.26439e-07
-3.74723e-07
1.36503e-07
-4.4421e-07
1.44495e-07
-5.16874e-07
1.50875e-07
-5.92126e-07
1.55991e-07
-6.69385e-07
1.60115e-07
-7.48238e-07
1.63425e-07
-8.28396e-07
1.66025e-07
-9.09571e-07
1.68026e-07
-9.91514e-07
1.69529e-07
-1.07402e-06
1.70619e-07
-1.15692e-06
1.71368e-07
-1.24007e-06
1.71837e-07
-1.32336e-06
1.72078e-07
-1.40671e-06
1.72135e-07
-1.49003e-06
1.72046e-07
-1.57328e-06
1.71842e-07
-1.65641e-06
1.71549e-07
-1.73938e-06
1.71187e-07
-1.82217e-06
1.70775e-07
-1.90475e-06
1.70324e-07
-1.98711e-06
1.69846e-07
-2.06924e-06
1.69349e-07
-2.15111e-06
1.68836e-07
-2.23273e-06
1.68313e-07
-2.31408e-06
1.6778e-07
-2.39516e-06
1.67239e-07
-2.47593e-06
1.66686e-07
-2.55641e-06
1.66118e-07
-2.63655e-06
1.65532e-07
-2.71636e-06
1.6492e-07
-2.7958e-06
1.64275e-07
-2.87484e-06
1.63588e-07
-2.95345e-06
1.6285e-07
-3.0316e-06
1.62049e-07
-3.10923e-06
1.61172e-07
-3.18629e-06
1.60205e-07
-3.26271e-06
1.59132e-07
-3.33843e-06
1.57932e-07
-3.41336e-06
1.56586e-07
-3.48741e-06
1.55067e-07
-3.56046e-06
1.53351e-07
-3.6324e-06
1.51405e-07
-3.70309e-06
1.49195e-07
-3.77236e-06
1.46683e-07
-3.84004e-06
1.43825e-07
-3.90592e-06
1.40571e-07
-3.96979e-06
1.36866e-07
-4.03137e-06
1.32647e-07
-4.09039e-06
1.27843e-07
-4.14652e-06
1.22376e-07
-4.1994e-06
1.1616e-07
-4.24863e-06
1.091e-07
-4.29375e-06
1.01096e-07
-4.33427e-06
9.20391e-08
-4.36965e-06
8.18177e-08
-4.39928e-06
7.03174e-08
-4.42252e-06
5.74243e-08
-4.43867e-06
4.30261e-08
-4.447e-06
2.70183e-08
-4.4467e-06
9.31717e-09
-4.43701e-06
-1.01028e-08
-4.41719e-06
-3.11575e-08
-4.3865e-06
-5.37144e-08
-4.34429e-06
-7.76248e-08
-4.29001e-06
-1.02672e-07
-4.22324e-06
-1.28574e-07
-4.14371e-06
-1.5499e-07
-4.05135e-06
-1.81536e-07
-3.94627e-06
-2.078e-07
-3.82879e-06
-2.33362e-07
-3.69944e-06
-2.57813e-07
-3.55892e-06
-2.80772e-07
-3.40811e-06
-3.01906e-07
-3.24803e-06
-3.20936e-07
-3.07981e-06
-3.37652e-07
-2.90465e-06
-3.51913e-07
-2.72378e-06
-3.63644e-07
-2.53844e-06
-3.7284e-07
-2.34987e-06
-3.79551e-07
-2.15922e-06
-3.8388e-07
-1.96759e-06
-3.85971e-07
-1.77601e-06
-3.85997e-07
-1.58538e-06
-3.84155e-07
-1.39652e-06
-3.8065e-07
-1.21014e-06
-3.75693e-07
-1.02683e-06
-3.69493e-07
-8.47078e-07
-3.62251e-07
-6.71259e-07
-3.54171e-07
-4.99634e-07
-3.4541e-07
-3.32302e-07
-3.36211e-07
-1.69173e-07
-3.26943e-07
-1.00588e-08
-3.17704e-07
1.44049e-07
-3.08093e-07
2.92147e-07
-2.97704e-07
4.34481e-07
-2.86632e-07
5.71172e-07
-2.75294e-07
7.02353e-07
-2.64026e-07
8.28126e-07
-2.52959e-07
9.4862e-07
-2.4216e-07
1.06398e-06
-2.31665e-07
1.17436e-06
-2.21495e-07
1.27992e-06
-2.11663e-07
1.38082e-06
-2.02172e-07
1.47721e-06
-1.93022e-07
1.56927e-06
-1.8421e-07
1.65714e-06
-1.75731e-07
1.741e-06
-1.6758e-07
1.82099e-06
-1.59748e-07
1.89726e-06
-1.52226e-07
1.96996e-06
-1.45007e-07
2.03923e-06
-1.3808e-07
2.10522e-06
-1.31438e-07
2.16805e-06
-1.2507e-07
2.22787e-06
-1.18969e-07
2.28478e-06
-1.13124e-07
2.33892e-06
-1.07527e-07
2.3904e-06
-1.02167e-07
2.43934e-06
-9.70364e-08
2.48584e-06
-9.21246e-08
2.53e-06
-8.74228e-08
2.57193e-06
-8.29217e-08
2.61172e-06
-7.8613e-08
2.64946e-06
-7.44891e-08
2.68525e-06
-7.0543e-08
2.71916e-06
-6.67677e-08
2.75129e-06
-6.31562e-08
2.7817e-06
-5.97017e-08
2.81047e-06
-5.63974e-08
2.83768e-06
-5.32371e-08
2.86339e-06
-5.0215e-08
2.88767e-06
-4.73253e-08
2.91058e-06
-4.45627e-08
2.93219e-06
-4.19216e-08
2.95254e-06
-3.93968e-08
2.97171e-06
-3.69832e-08
2.98973e-06
-3.46764e-08
3.00667e-06
-3.24725e-08
3.02257e-06
-3.03681e-08
3.03748e-06
-2.83595e-08
3.05144e-06
-2.64428e-08
3.06451e-06
-2.46139e-08
3.07671e-06
-2.28686e-08
3.08809e-06
-2.1203e-08
3.09869e-06
-1.96137e-08
3.10854e-06
-1.80971e-08
3.11769e-06
-1.66506e-08
3.12616e-06
-1.52717e-08
3.13399e-06
-1.39581e-08
3.14121e-06
-1.27069e-08
3.14785e-06
-1.15142e-08
3.15393e-06
-1.03751e-08
3.15948e-06
-9.28417e-09
3.16451e-06
-8.23511e-09
3.16905e-06
-7.21961e-09
3.1731e-06
-6.22608e-09
3.17668e-06
-5.24155e-09
3.17978e-06
-4.25036e-09
3.18237e-06
-3.22933e-09
3.18443e-06
-2.14795e-09
3.1859e-06
-9.6551e-10
3.18669e-06
3.87392e-10
3.18668e-06
2.01417e-09
3.18567e-06
4.06389e-09
3.18331e-06
6.77468e-09
3.17913e-06
1.05252e-08
3.1723e-06
1.59733e-08
3.16146e-06
2.43373e-08
3.14427e-06
3.79512e-08
3.11668e-06
6.20663e-08
3.0719e-06
1.08663e-07
2.09355e-07
3.01091e-06
-2.24288e-08
-2.97899e-08
-5.89003e-08
8.74118e-09
-1.01745e-07
4.50356e-08
-1.47496e-07
7.69157e-08
-1.96034e-07
1.05137e-07
-2.47249e-07
1.29984e-07
-3.00936e-07
1.51541e-07
-3.57097e-07
1.69907e-07
-4.15956e-07
1.85302e-07
-4.77528e-07
1.98077e-07
-5.41642e-07
2.0861e-07
-6.08024e-07
2.17258e-07
-6.76361e-07
2.24329e-07
-7.46328e-07
2.30082e-07
-8.17632e-07
2.34728e-07
-8.90039e-07
2.38431e-07
-9.63352e-07
2.41338e-07
-1.0374e-06
2.43573e-07
-1.11203e-06
2.45246e-07
-1.18712e-06
2.46452e-07
-1.26256e-06
2.47272e-07
-1.33826e-06
2.47774e-07
-1.41414e-06
2.48016e-07
-1.49015e-06
2.48049e-07
-1.56622e-06
2.47913e-07
-1.64231e-06
2.47643e-07
-1.71839e-06
2.47266e-07
-1.79441e-06
2.46806e-07
-1.87037e-06
2.4628e-07
-1.94622e-06
2.45702e-07
-2.02195e-06
2.45082e-07
-2.09753e-06
2.44427e-07
-2.17296e-06
2.43741e-07
-2.2482e-06
2.43027e-07
-2.32324e-06
2.42282e-07
-2.39806e-06
2.41505e-07
-2.47263e-06
2.40691e-07
-2.54693e-06
2.3983e-07
-2.62093e-06
2.38915e-07
-2.69459e-06
2.37935e-07
-2.76787e-06
2.36875e-07
-2.84075e-06
2.35721e-07
-2.91316e-06
2.34457e-07
-2.98505e-06
2.33062e-07
-3.05636e-06
2.31514e-07
-3.12702e-06
2.2979e-07
-3.19696e-06
2.27859e-07
-3.26606e-06
2.25692e-07
-3.33425e-06
2.23251e-07
-3.4014e-06
2.20498e-07
-3.46739e-06
2.17387e-07
-3.53207e-06
2.1387e-07
-3.59527e-06
2.09889e-07
-3.65683e-06
2.05382e-07
-3.71654e-06
2.00278e-07
-3.77417e-06
1.94499e-07
-3.82948e-06
1.87954e-07
-3.88218e-06
1.80545e-07
-3.93197e-06
1.72162e-07
-3.97849e-06
1.62685e-07
-4.02138e-06
1.51983e-07
-4.0602e-06
1.39914e-07
-4.09449e-06
1.26329e-07
-4.12375e-06
1.1107e-07
-4.14741e-06
9.39785e-08
-4.16488e-06
7.48961e-08
-4.17553e-06
5.3669e-08
-4.17867e-06
3.01552e-08
-4.17358e-06
4.22805e-09
-4.15956e-06
-2.41212e-08
-4.13593e-06
-5.47911e-08
-4.10199e-06
-8.76595e-08
-4.0571e-06
-1.22516e-07
-4.00071e-06
-1.59055e-07
-3.93241e-06
-1.96875e-07
-3.85191e-06
-2.35489e-07
-3.7591e-06
-2.74338e-07
-3.65408e-06
-3.12818e-07
-3.53714e-06
-3.50307e-07
-3.40875e-06
-3.86193e-07
-3.26962e-06
-4.19905e-07
-3.12059e-06
-4.50934e-07
-2.96266e-06
-4.78861e-07
-2.79695e-06
-5.03367e-07
-2.62462e-06
-5.24235e-07
-2.44691e-06
-5.41357e-07
-2.26503e-06
-5.54721e-07
-2.08017e-06
-5.6441e-07
-1.89346e-06
-5.70581e-07
-1.70599e-06
-5.73449e-07
-1.5187e-06
-5.73282e-07
-1.33248e-06
-5.70378e-07
-1.14808e-06
-5.65047e-07
-9.66157e-07
-5.57613e-07
-7.87251e-07
-5.48398e-07
-6.11793e-07
-5.37708e-07
-4.40086e-07
-5.25877e-07
-2.72342e-07
-5.13152e-07
-1.08658e-07
-4.99894e-07
5.05494e-08
-4.8615e-07
2.04376e-07
-4.7153e-07
3.524e-07
-4.56116e-07
4.94753e-07
-4.40058e-07
6.31695e-07
-4.23575e-07
7.63383e-07
-4.06983e-07
8.89896e-07
-3.90542e-07
1.01133e-06
-3.74391e-07
1.12778e-06
-3.58614e-07
1.23937e-06
-3.43261e-07
1.34624e-06
-3.28361e-07
1.44851e-06
-3.13934e-07
1.54632e-06
-2.99989e-07
1.63983e-06
-2.86528e-07
1.72917e-06
-2.73551e-07
1.81449e-06
-2.61053e-07
1.89594e-06
-2.49027e-07
1.97366e-06
-2.37464e-07
2.04779e-06
-2.26353e-07
2.11847e-06
-2.15683e-07
2.18583e-06
-2.05442e-07
2.25001e-06
-1.95616e-07
2.31113e-06
-1.86194e-07
2.36933e-06
-1.77161e-07
2.4247e-06
-1.68505e-07
2.47739e-06
-1.60211e-07
2.52749e-06
-1.52268e-07
2.57512e-06
-1.44661e-07
2.62037e-06
-1.37378e-07
2.66336e-06
-1.30406e-07
2.70417e-06
-1.23732e-07
2.7429e-06
-1.17344e-07
2.77964e-06
-1.11231e-07
2.81448e-06
-1.05381e-07
2.84749e-06
-9.9784e-08
2.87877e-06
-9.44302e-08
2.90837e-06
-8.93095e-08
2.93639e-06
-8.44122e-08
2.96288e-06
-7.97294e-08
2.98792e-06
-7.52521e-08
3.01156e-06
-7.09721e-08
3.03388e-06
-6.68807e-08
3.05492e-06
-6.29702e-08
3.07476e-06
-5.92327e-08
3.09343e-06
-5.56612e-08
3.111e-06
-5.22492e-08
3.12752e-06
-4.8991e-08
3.14304e-06
-4.58808e-08
3.15759e-06
-4.29131e-08
3.17123e-06
-4.00817e-08
3.18399e-06
-3.73807e-08
3.19593e-06
-3.48042e-08
3.20707e-06
-3.23465e-08
3.21746e-06
-3.00027e-08
3.22713e-06
-2.77683e-08
3.23611e-06
-2.5639e-08
3.24446e-06
-2.3611e-08
3.25218e-06
-2.16802e-08
3.25932e-06
-1.98417e-08
3.26589e-06
-1.80901e-08
3.27194e-06
-1.64185e-08
3.27747e-06
-1.48184e-08
3.28252e-06
-1.32804e-08
3.28709e-06
-1.17932e-08
3.29121e-06
-1.03416e-08
3.29487e-06
-8.90541e-09
3.29808e-06
-7.45983e-09
3.30082e-06
-5.97117e-09
3.30306e-06
-4.39223e-09
3.30476e-06
-2.65892e-09
3.30582e-06
-6.77481e-10
3.30614e-06
1.69436e-09
3.30553e-06
4.67072e-09
3.30372e-06
8.58479e-09
3.30028e-06
1.39612e-08
3.29458e-06
2.16756e-08
3.28564e-06
3.32739e-08
3.27204e-06
5.15471e-08
3.25203e-06
8.20742e-08
3.22479e-06
1.35895e-07
2.35068e-07
3.19908e-06
-4.67802e-08
1.69788e-08
-9.86636e-08
6.06267e-08
-1.50014e-07
9.6383e-08
-2.01257e-07
1.28156e-07
-2.529e-07
1.56778e-07
-3.05255e-07
1.82337e-07
-3.58552e-07
2.04838e-07
-4.13015e-07
2.24369e-07
-4.68837e-07
2.41122e-07
-5.26116e-07
2.55355e-07
-5.84859e-07
2.67355e-07
-6.45002e-07
2.77402e-07
-7.06433e-07
2.85761e-07
-7.69016e-07
2.92667e-07
-8.32613e-07
2.98327e-07
-8.97099e-07
3.02919e-07
-9.62359e-07
3.066e-07
-1.02829e-06
3.09505e-07
-1.0948e-06
3.11754e-07
-1.16179e-06
3.13449e-07
-1.2292e-06
3.14682e-07
-1.29696e-06
3.15528e-07
-1.36499e-06
3.16053e-07
-1.43326e-06
3.16314e-07
-1.5017e-06
3.16358e-07
-1.57028e-06
3.16224e-07
-1.63896e-06
3.15945e-07
-1.70771e-06
3.15548e-07
-1.77648e-06
3.15053e-07
-1.84526e-06
3.14478e-07
-1.91401e-06
3.13835e-07
-1.98272e-06
3.13132e-07
-2.05135e-06
3.12375e-07
-2.11989e-06
3.11564e-07
-2.18831e-06
3.107e-07
-2.25658e-06
3.09777e-07
-2.32468e-06
3.08789e-07
-2.39258e-06
3.07727e-07
-2.46024e-06
3.06578e-07
-2.52763e-06
3.05328e-07
-2.59472e-06
3.03959e-07
-2.66145e-06
3.02453e-07
-2.72778e-06
3.00786e-07
-2.79365e-06
2.98934e-07
-2.859e-06
2.96865e-07
-2.92376e-06
2.94549e-07
-2.98785e-06
2.91948e-07
-3.05117e-06
2.89019e-07
-3.11364e-06
2.85718e-07
-3.17514e-06
2.81993e-07
-3.23554e-06
2.77785e-07
-3.2947e-06
2.7303e-07
-3.35247e-06
2.67656e-07
-3.40867e-06
2.61582e-07
-3.46311e-06
2.54718e-07
-3.51557e-06
2.46961e-07
-3.56582e-06
2.38199e-07
-3.61358e-06
2.28306e-07
-3.65856e-06
2.17144e-07
-3.70044e-06
2.04561e-07
-3.73884e-06
1.90389e-07
-3.77338e-06
1.74451e-07
-3.8036e-06
1.56555e-07
-3.82903e-06
1.36501e-07
-3.84914e-06
1.14086e-07
-3.86335e-06
8.91074e-08
-3.87105e-06
6.13704e-08
-3.8716e-06
3.07004e-08
-3.86433e-06
-3.04283e-09
-3.84855e-06
-3.99009e-08
-3.82355e-06
-7.97978e-08
-3.78862e-06
-1.22586e-07
-3.74313e-06
-1.68008e-07
-3.68651e-06
-2.15678e-07
-3.6183e-06
-2.65084e-07
-3.5382e-06
-3.15591e-07
-3.44608e-06
-3.66464e-07
-3.34199e-06
-4.16902e-07
-3.22623e-06
-4.66069e-07
-3.09928e-06
-5.13142e-07
-2.96184e-06
-5.57345e-07
-2.81478e-06
-5.9799e-07
-2.65913e-06
-6.34511e-07
-2.49602e-06
-6.66476e-07
-2.32665e-06
-6.93602e-07
-2.15226e-06
-7.15751e-07
-1.97406e-06
-7.32919e-07
-1.79324e-06
-7.45229e-07
-1.61091e-06
-7.52908e-07
-1.42811e-06
-7.56252e-07
-1.24575e-06
-7.55633e-07
-1.06467e-06
-7.51461e-07
-8.85571e-07
-7.4415e-07
-7.09046e-07
-7.34141e-07
-5.35587e-07
-7.21859e-07
-3.65587e-07
-7.0771e-07
-1.9935e-07
-6.92117e-07
-3.70908e-08
-6.75412e-07
1.20474e-07
-6.57459e-07
2.72603e-07
-6.3828e-07
4.19256e-07
-6.18184e-07
5.6052e-07
-5.9738e-07
6.96558e-07
-5.76099e-07
8.27543e-07
-5.54562e-07
9.53585e-07
-5.33026e-07
1.07475e-06
-5.11707e-07
1.19111e-06
-4.90754e-07
1.30276e-06
-4.70262e-07
1.4098e-06
-4.50296e-07
1.51233e-06
-4.30898e-07
1.61049e-06
-4.12093e-07
1.7044e-06
-3.93898e-07
1.7942e-06
-3.76319e-07
1.88001e-06