/*--------------------------------*- C++ -*----------------------------------*\
| =========                 |                                                 |
| \\      /  F ield         | OpenFOAM: The Open Source CFD Toolbox           |
|  \\    /   O peration     | Version:  1.4.2                                 |
|   \\  /    A nd           | Web:      http://www.openfoam.org               |
|    \\/     M anipulation  |                                                 |
\*---------------------------------------------------------------------------*/
FoamFile
{
    version     2.0;
    format      ascii;
    class       volVectorField;
    object      U;
    location    "350";
}
// * * * * * * * * * * * * * * * * * * * * * * * * * * * * * * * * * * * * * //

dimensions      [0 1 -1 0 0 0 0];

internalField   nonuniform List<vector> 
12225
(
(9.77628 0.0380865 0)
(9.58153 0.038817 0)
(9.36709 0.0370421 0)
(9.16119 0.0361858 0)
(8.97003 0.0352505 0)
(8.79145 0.034091 0)
(8.62425 0.0328362 0)
(8.46812 0.0315503 0)
(8.32272 0.0302479 0)
(8.18757 0.0289349 0)
(8.06217 0.0276163 0)
(7.94607 0.0262937 0)
(7.83886 0.0249628 0)
(7.74019 0.0236088 0)
(7.64989 0.0221925 0)
(7.56802 0.0206096 0)
(7.49607 0.0186358 0)
(7.42715 0.00609548 0)
(10.004 0.0585954 0)
(10.0076 0.0555721 0)
(9.98279 0.0519319 0)
(9.95056 0.0515298 0)
(9.91742 0.0512843 0)
(9.88287 0.0506639 0)
(9.84691 0.0498748 0)
(9.81011 0.0490091 0)
(9.77292 0.0480683 0)
(9.73568 0.0470461 0)
(9.69866 0.0459404 0)
(9.66213 0.0447422 0)
(9.62637 0.0434283 0)
(9.59169 0.0419454 0)
(9.55853 0.040172 0)
(9.52756 0.037811 0)
(9.50017 0.0341109 0)
(9.47399 0.025577 0)
(10.0174 0.0524636 0)
(10.0369 0.0527488 0)
(10.0381 0.0513671 0)
(10.0333 0.0523637 0)
(10.0277 0.0530459 0)
(10.021 0.0530997 0)
(10.0132 0.0528592 0)
(10.0046 0.0524705 0)
(9.99546 0.051955 0)
(9.98592 0.0513151 0)
(9.97611 0.0505502 0)
(9.96614 0.0496454 0)
(9.95613 0.0485601 0)
(9.94626 0.0472071 0)
(9.93674 0.045403 0)
(9.92778 0.0427509 0)
(9.91963 0.0383299 0)
(9.90876 0.0297435 0)
(10.0158 0.0450065 0)
(10.0374 0.0502417 0)
(10.0457 0.0508381 0)
(10.0484 0.052421 0)
(10.0501 0.0534785 0)
(10.051 0.0538687 0)
(10.0509 0.0539104 0)
(10.0501 0.0537545 0)
(10.049 0.0534356 0)
(10.0475 0.0529637 0)
(10.0459 0.0523395 0)
(10.0442 0.0515443 0)
(10.0424 0.050529 0)
(10.0407 0.0491948 0)
(10.0391 0.0473537 0)
(10.0376 0.0446605 0)
(10.036 0.0405441 0)
(10.0319 0.0341855 0)
(10.0125 0.0371559 0)
(10.033 0.0463047 0)
(10.0443 0.0488205 0)
(10.0504 0.0510315 0)
(10.0552 0.0524456 0)
(10.0591 0.0531049 0)
(10.0621 0.0533415 0)
(10.0645 0.0533246 0)
(10.0665 0.0531065 0)
(10.0682 0.0527058 0)
(10.0697 0.052126 0)
(10.071 0.0513487 0)
(10.0723 0.0503255 0)
(10.0735 0.0489634 0)
(10.0747 0.0471042 0)
(10.0756 0.0445035 0)
(10.0761 0.040877 0)
(10.0747 0.0360671 0)
(10.0093 0.0303307 0)
(10.0271 0.0415856 0)
(10.0396 0.0457484 0)
(10.0478 0.0486588 0)
(10.0544 0.0504937 0)
(10.0599 0.0514608 0)
(10.0646 0.0519112 0)
(10.0687 0.0520356 0)
(10.0723 0.0519119 0)
(10.0756 0.0515749 0)
(10.0786 0.0510353 0)
(10.0815 0.0502799 0)
(10.0842 0.0492671 0)
(10.0867 0.0479208 0)
(10.089 0.0461263 0)
(10.091 0.0437389 0)
(10.0923 0.0406656 0)
(10.0922 0.037031 0)
(10.0067 0.0245984 0)
(10.0214 0.036636 0)
(10.0338 0.0419786 0)
(10.0429 0.0454851 0)
(10.0506 0.0477425 0)
(10.0573 0.0490426 0)
(10.0631 0.0497343 0)
(10.0683 0.050025 0)
(10.0729 0.0500156 0)
(10.0772 0.0497565 0)
(10.0811 0.0492693 0)
(10.0848 0.0485505 0)
(10.0883 0.0475722 0)
(10.0915 0.046283 0)
(10.0945 0.044614 0)
(10.097 0.0425006 0)
(10.0988 0.0399588 0)
(10.0995 0.0372008 0)
(10.005 0.0205007 0)
(10.0172 0.0325051 0)
(10.0288 0.0384731 0)
(10.0381 0.04236 0)
(10.0461 0.0449076 0)
(10.0534 0.0464535 0)
(10.0598 0.0473405 0)
(10.0655 0.0477799 0)
(10.0708 0.0478818 0)
(10.0757 0.0477065 0)
(10.0802 0.0472842 0)
(10.0844 0.0466214 0)
(10.0883 0.0457045 0)
(10.0919 0.0445043 0)
(10.0951 0.0429873 0)
(10.0979 0.0411385 0)
(10.1001 0.0390202 0)
(10.1013 0.036843 0)
(10.0038 0.0173671 0)
(10.014 0.0289627 0)
(10.0246 0.0352467 0)
(10.0337 0.0393841 0)
(10.0419 0.0421382 0)
(10.0493 0.0438705 0)
(10.056 0.0449129 0)
(10.0622 0.0454749 0)
(10.0678 0.0456734 0)
(10.0731 0.0455762 0)
(10.0779 0.0452206 0)
(10.0825 0.0446217 0)
(10.0867 0.0437781 0)
(10.0906 0.042679 0)
(10.094 0.0413169 0)
(10.0971 0.0397086 0)
(10.0995 0.0379362 0)
(10.1012 0.0361876 0)
(10.0029 0.0145346 0)
(10.0111 0.0253656 0)
(10.0206 0.031733 0)
(10.0292 0.0360025 0)
(10.0372 0.0389014 0)
(10.0446 0.0407861 0)
(10.0515 0.0419663 0)
(10.0578 0.0426448 0)
(10.0637 0.0429411 0)
(10.0692 0.0429285 0)
(10.0744 0.0426508 0)
(10.0792 0.0421319 0)
(10.0836 0.0413829 0)
(10.0877 0.0404104 0)
(10.0914 0.0392285 0)
(10.0946 0.0378754 0)
(10.0973 0.0364385 0)
(10.0994 0.0350776 0)
(10.0021 0.0120013 0)
(10.0087 0.0217984 0)
(10.0169 0.0280151 0)
(10.0248 0.032273 0)
(10.0324 0.035227 0)
(10.0396 0.0372071 0)
(10.0464 0.0384889 0)
(10.0528 0.0392628 0)
(10.0588 0.0396472 0)
(10.0644 0.0397181 0)
(10.0697 0.0395246 0)
(10.0746 0.0390988 0)
(10.0792 0.0384627 0)
(10.0835 0.0376374 0)
(10.0873 0.0366521 0)
(10.0907 0.0355562 0)
(10.0937 0.0344318 0)
(10.0962 0.0334077 0)
(10.0015 0.00976301 0)
(10.0067 0.0183365 0)
(10.0136 0.0241725 0)
(10.0208 0.0282682 0)
(10.0278 0.03117 0)
(10.0346 0.0331687 0)
(10.0412 0.0344993 0)
(10.0474 0.0353333 0)
(10.0534 0.0357838 0)
(10.059 0.035927 0)
(10.0643 0.0358154 0)
(10.0693 0.0354872 0)
(10.0739 0.0349733 0)
(10.0782 0.0343045 0)
(10.0822 0.0335185 0)
(10.0857 0.0326671 0)
(10.0889 0.0318206 0)
(10.0917 0.0310774 0)
(10.0011 0.00779584 0)
(10.0052 0.0150333 0)
(10.0109 0.0202761 0)
(10.0173 0.0240571 0)
(10.0236 0.0267901 0)
(10.03 0.0287178 0)
(10.0362 0.0300315 0)
(10.0422 0.0308787 0)
(10.0479 0.0313632 0)
(10.0534 0.031558 0)
(10.0586 0.0315165 0)
(10.0635 0.0312806 0)
(10.0681 0.0308863 0)
(10.0724 0.0303691 0)
(10.0764 0.0297691 0)
(10.0801 0.0291341 0)
(10.0834 0.0285201 0)
(10.0865 0.0279983 0)
(10.0008 0.006055 0)
(10.004 0.0119083 0)
(10.0088 0.0163767 0)
(10.0143 0.0196936 0)
(10.02 0.0221375 0)
(10.0259 0.0238967 0)
(10.0316 0.0251193 0)
(10.0373 0.0259251 0)
(10.0427 0.0264036 0)
(10.048 0.0266214 0)
(10.053 0.0266298 0)
(10.0578 0.0264706 0)
(10.0623 0.0261808 0)
(10.0665 0.0257964 0)
(10.0705 0.0253545 0)
(10.0742 0.0248952 0)
(10.0776 0.0244603 0)
(10.0809 0.0240993 0)
(10.0007 0.00448394 0)
(10.0032 0.00894379 0)
(10.0072 0.012494 0)
(10.0119 0.0152045 0)
(10.0171 0.0172389 0)
(10.0224 0.0187284 0)
(10.0277 0.01978 0)
(10.033 0.0204832 0)
(10.0382 0.0209097 0)
(10.0431 0.0211155 0)
(10.048 0.0211459 0)
(10.0525 0.0210388 0)
(10.0569 0.0208282 0)
(10.0611 0.0205462 0)
(10.065 0.0202241 0)
(10.0687 0.0198926 0)
(10.0721 0.0195811 0)
(10.0755 0.0193228 0)
(10.0005 0.00301984 0)
(10.0026 0.00608415 0)
(10.006 0.00860266 0)
(10.0102 0.0105752 0)
(10.0148 0.0120814 0)
(10.0197 0.013199 0)
(10.0246 0.0139954 0)
(10.0295 0.0145299 0)
(10.0344 0.0148526 0)
(10.0391 0.0150053 0)
(10.0437 0.015023 0)
(10.0482 0.0149361 0)
(10.0524 0.0147717 0)
(10.0564 0.0145552 0)
(10.0603 0.0143098 0)
(10.0639 0.0140574 0)
(10.0674 0.0138173 0)
(10.0708 0.0136113 0)
(10.0005 0.00159251 0)
(10.0023 0.00323442 0)
(10.0053 0.0046212 0)
(10.009 0.00573491 0)
(10.0133 0.00659908 0)
(10.0178 0.00724423 0)
(10.0224 0.00770042 0)
(10.0271 0.00799648 0)
(10.0317 0.00815898 0)
(10.0363 0.00821168 0)
(10.0407 0.00817594 0)
(10.0449 0.00807112 0)
(10.049 0.00791503 0)
(10.053 0.00772403 0)
(10.0567 0.00751295 0)
(10.0603 0.00729499 0)
(10.0638 0.00708173 0)
(10.0672 0.00688789 0)
(10.0004 0.000197859 0)
(10.0022 0.000422577 0)
(10.005 0.000647743 0)
(10.0086 0.0008562 0)
(10.0127 0.00102875 0)
(10.0171 0.00115349 0)
(10.0215 0.00122525 0)
(10.0261 0.00124324 0)
(10.0306 0.00120982 0)
(10.035 0.00112962 0)
(10.0393 0.00100883 0)
(10.0434 0.000854565 0)
(10.0474 0.0006743 0)
(10.0513 0.000475421 0)
(10.055 0.000264808 0)
(10.0586 4.86526e-05 0)
(10.062 -0.000167139 0)
(10.0654 -0.000372594 0)
(10.0005 -0.00113786 0)
(10.0023 -0.00225978 0)
(10.0053 -0.00312214 0)
(10.009 -0.00375078 0)
(10.0132 -0.00421329 0)
(10.0175 -0.00456468 0)
(10.022 -0.00484427 0)
(10.0265 -0.00508112 0)
(10.031 -0.00529581 0)
(10.0354 -0.00550159 0)
(10.0397 -0.0057062 0)
(10.0438 -0.0059136 0)
(10.0478 -0.0061253 0)
(10.0516 -0.00634137 0)
(10.0553 -0.00656112 0)
(10.0588 -0.00678346 0)
(10.0622 -0.0070063 0)
(10.0656 -0.00722307 0)
(10.0005 -0.00247117 0)
(10.0027 -0.00487972 0)
(10.006 -0.00671691 0)
(10.0101 -0.00805916 0)
(10.0145 -0.0090464 0)
(10.019 -0.00978127 0)
(10.0236 -0.010337 0)
(10.0282 -0.01077 0)
(10.0328 -0.0111216 0)
(10.0372 -0.0114204 0)
(10.0415 -0.0116856 0)
(10.0456 -0.0119298 0)
(10.0496 -0.0121616 0)
(10.0534 -0.0123864 0)
(10.0571 -0.0126083 0)
(10.0606 -0.0128297 0)
(10.064 -0.0130513 0)
(10.0673 -0.0132693 0)
(10.0007 -0.00391554 0)
(10.0033 -0.00760957 0)
(10.0073 -0.010312 0)
(10.0118 -0.012237 0)
(10.0166 -0.0136323 0)
(10.0214 -0.0146512 0)
(10.0263 -0.0154008 0)
(10.031 -0.0159642 0)
(10.0356 -0.0164013 0)
(10.0401 -0.0167532 0)
(10.0444 -0.0170477 0)
(10.0486 -0.017304 0)
(10.0525 -0.0175355 0)
(10.0563 -0.0177519 0)
(10.06 -0.0179602 0)
(10.0634 -0.0181658 0)
(10.0667 -0.0183717 0)
(10.07 -0.0185768 0)
(10.001 -0.00559458 0)
(10.0044 -0.0105929 0)
(10.0092 -0.0140184 0)
(10.0144 -0.0163744 0)
(10.0196 -0.0180505 0)
(10.0247 -0.0192456 0)
(10.0298 -0.0201 0)
(10.0347 -0.0207226 0)
(10.0394 -0.0211889 0)
(10.0439 -0.0215491 0)
(10.0482 -0.0218369 0)
(10.0523 -0.0220759 0)
(10.0562 -0.0222824 0)
(10.0599 -0.0224685 0)
(10.0634 -0.0226435 0)
(10.0668 -0.0228148 0)
(10.07 -0.0229878 0)
(10.0731 -0.0231647 0)
(10.0014 -0.00765963 0)
(10.006 -0.0139475 0)
(10.0119 -0.0178833 0)
(10.0178 -0.0204883 0)
(10.0234 -0.0223036 0)
(10.0288 -0.0235573 0)
(10.034 -0.0244216 0)
(10.0389 -0.0250294 0)
(10.0436 -0.0254674 0)
(10.048 -0.0257908 0)
(10.0522 -0.0260364 0)
(10.0561 -0.0262295 0)
(10.0599 -0.0263876 0)
(10.0634 -0.0265234 0)
(10.0667 -0.026647 0)
(10.0699 -0.0267671 0)
(10.0729 -0.0268913 0)
(10.0757 -0.0270263 0)
(10.0021 -0.0102978 0)
(10.0084 -0.0177477 0)
(10.0155 -0.0218778 0)
(10.022 -0.0245146 0)
(10.0279 -0.0263125 0)
(10.0334 -0.0275009 0)
(10.0385 -0.0282816 0)
(10.0433 -0.0288064 0)
(10.0477 -0.0291662 0)
(10.0518 -0.0294161 0)
(10.0557 -0.0295921 0)
(10.0593 -0.0297184 0)
(10.0627 -0.0298114 0)
(10.0659 -0.0298826 0)
(10.0689 -0.0299414 0)
(10.0718 -0.0299966 0)
(10.0744 -0.0300581 0)
(10.077 -0.0301385 0)
(10.0033 -0.0137305 0)
(10.0117 -0.0219844 0)
(10.02 -0.0258737 0)
(10.0267 -0.0283027 0)
(10.0325 -0.0299271 0)
(10.0377 -0.0309377 0)
(10.0424 -0.031557 0)
(10.0467 -0.0319455 0)
(10.0506 -0.0321906 0)
(10.0542 -0.0323425 0)
(10.0576 -0.0324332 0)
(10.0607 -0.0324837 0)
(10.0636 -0.0325068 0)
(10.0663 -0.0325111 0)
(10.0688 -0.0325028 0)
(10.0712 -0.0324885 0)
(10.0733 -0.0324794 0)
(10.0754 -0.0324953 0)
(10.0051 -0.0182139 0)
(10.016 -0.0264869 0)
(10.0249 -0.0296005 0)
(10.0311 -0.0315986 0)
(10.0362 -0.0329143 0)
(10.0406 -0.0336602 0)
(10.0445 -0.0340702 0)
(10.0478 -0.0343003 0)
(10.0509 -0.0344232 0)
(10.0536 -0.0344771 0)
(10.0561 -0.0344861 0)
(10.0584 -0.0344658 0)
(10.0606 -0.0344246 0)
(10.0625 -0.0343667 0)
(10.0643 -0.0342935 0)
(10.066 -0.0342062 0)
(10.0674 -0.0341128 0)
(10.0688 -0.0340374 0)
(10.0075 -0.0240674 0)
(10.0207 -0.0309 0)
(10.029 -0.0326217 0)
(10.0335 -0.0340495 0)
(10.037 -0.0350179 0)
(10.0398 -0.0354902 0)
(10.0421 -0.0356968 0)
(10.044 -0.035781 0)
(10.0455 -0.0357959 0)
(10.0468 -0.0357649 0)
(10.0478 -0.0357036 0)
(10.0487 -0.0356221 0)
(10.0495 -0.035525 0)
(10.0501 -0.0354123 0)
(10.0506 -0.0352795 0)
(10.051 -0.0351187 0)
(10.0512 -0.034926 0)
(10.0513 -0.0347122 0)
(10.0101 -0.0307079 0)
(10.0239 -0.0343243 0)
(10.0289 -0.0342301 0)
(10.0296 -0.0350525 0)
(10.0295 -0.0356992 0)
(10.029 -0.0359287 0)
(10.0278 -0.0359523 0)
(10.0262 -0.0358966 0)
(10.0244 -0.035798 0)
(10.0223 -0.0356701 0)
(10.0202 -0.0355236 0)
(10.0179 -0.0353658 0)
(10.0156 -0.0351987 0)
(10.0132 -0.0350197 0)
(10.0108 -0.0348189 0)
(10.0084 -0.0345748 0)
(10.0059 -0.0342539 0)
(10.0031 -0.0337938 0)
(10.0063 -0.0363865 0)
(10.0143 -0.0378989 0)
(10.0069 -0.036036 0)
(9.99464 -0.0358697 0)
(9.98224 -0.0358617 0)
(9.9697 -0.0356224 0)
(9.95681 -0.035292 0)
(9.94375 -0.0349571 0)
(9.93072 -0.0346303 0)
(9.9178 -0.0343091 0)
(9.90503 -0.0339936 0)
(9.89245 -0.0336838 0)
(9.88008 -0.0333777 0)
(9.86794 -0.0330703 0)
(9.85607 -0.0327499 0)
(9.84448 -0.0323869 0)
(9.83321 -0.0319131 0)
(9.82172 -0.0309421 0)
(9.89294 -0.0248239 0)
(9.80346 -0.0270609 0)
(9.69928 -0.0264652 0)
(9.59648 -0.0263076 0)
(9.5002 -0.026106 0)
(9.40949 -0.0257505 0)
(9.32351 -0.0253334 0)
(9.242 -0.0249087 0)
(9.1648 -0.024489 0)
(9.09169 -0.0240758 0)
(9.02244 -0.0236699 0)
(8.95682 -0.0232716 0)
(8.89465 -0.0228802 0)
(8.83574 -0.0224935 0)
(8.77993 -0.0221065 0)
(8.72709 -0.0217034 0)
(8.67731 -0.0212373 0)
(8.62908 -0.0203493 0)
(0.0242123 -0.0590503 0)
(0.050929 -0.0556207 0)
(0.0738907 -0.0417431 0)
(0.0847639 -0.025287 0)
(0.0794858 -0.00567924 0)
(0.0604943 0.0169507 0)
(0.0292523 0.0407379 -1.12908e-19)
(-0.0187512 0.0625847 1.05313e-19)
(-0.0730619 0.074746 0)
(-0.13364 0.0812679 7.17862e-20)
(-0.198548 0.0849591 0)
(-0.26674 0.0871895 0)
(-0.337612 0.0887167 0)
(-0.410476 0.0901323 -4.24551e-20)
(-0.485063 0.0911051 0)
(-0.561154 0.0914248 0)
(-0.638297 0.0913998 3.31211e-20)
(-0.716269 0.0911519 0)
(-0.794878 0.0907346 0)
(-0.873961 0.0901837 0)
(-0.953381 0.0895292 -2.64807e-20)
(-1.03302 0.0887969 0)
(-1.1128 0.0880091 -2.44237e-20)
(-1.19263 0.0871839 0)
(-1.27246 0.0863364 0)
(-1.35224 0.0854783 -2.22477e-20)
(-1.43194 0.0846186 0)
(-1.51153 0.0837643 2.12146e-20)
(-1.59101 0.0829206 0)
(-1.67035 0.082091 -2.04172e-20)
(-1.74956 0.0812777 0)
(-1.82864 0.0804821 0)
(-1.90758 0.0797048 0)
(-1.98638 0.0789458 0)
(-2.06505 0.0782045 0)
(-2.14358 0.0774795 1.89433e-20)
(-2.22198 0.0767689 0)
(-2.30025 0.0760701 -3.73028e-20)
(-2.37838 0.0753801 0)
(-2.45637 0.0746953 3.68471e-20)
(-2.53422 0.074012 0)
(-2.6119 0.0733257 0)
(-2.68941 0.072632 -3.63386e-20)
(-2.76672 0.0719256 0)
(-2.84381 0.0712008 -3.60799e-20)
(-2.92063 0.0704508 3.59664e-20)
(-2.99714 0.0696678 0)
(-3.0733 0.0688428 3.57582e-20)
(-3.14905 0.0679658 3.56587e-20)
(-3.2243 0.0670254 0)
(-3.29897 0.0660091 0)
(-3.37297 0.0649027 0)
(-3.44616 0.0636902 0)
(-3.51842 0.0623535 0)
(-3.58956 0.0608721 -3.49618e-20)
(-3.65941 0.0592228 0)
(-3.72774 0.0573795 3.46215e-20)
(-3.79431 0.0553129 0)
(-3.85881 0.0529908 0)
(-3.92092 0.0503776 -3.39118e-20)
(-3.98027 0.047435 0)
(-4.03641 0.044122 3.32514e-20)
(-4.08886 0.0403959 0)
(-4.13709 0.0362127 0)
(-4.18047 0.0315284 0)
(-4.21833 0.0262999 -3.12633e-20)
(-4.24995 0.0204855 0)
(-4.27459 0.0140448 0)
(-4.29141 0.00695246 -2.89432e-20)
(-4.29944 -0.000766704 0)
(-4.29772 -0.00903301 -2.67874e-20)
(-4.28559 -0.0177973 0)
(-4.26227 -0.0270219 0)
(-4.22714 -0.036619 0)
(-4.17968 -0.0464781 2.06592e-20)
(-4.11954 -0.0564712 0)
(-4.04654 -0.0664587 0)
(-3.96071 -0.0762948 1.42687e-20)
(-3.86229 -0.0858346 1.17644e-20)
(-3.7517 -0.0949401 0)
(-3.62957 -0.103486 6.17467e-21)
(-3.49668 -0.111364 0)
(-3.35398 -0.118487 -4.02588e-22)
(-3.20252 -0.124789 0)
(-3.04342 -0.130228 -1.4745e-20)
(-2.87787 -0.134784 0)
(-2.70707 -0.138458 3.07018e-20)
(-2.5322 -0.141271 0)
(-2.35443 -0.143256 0)
(-2.17483 -0.144462 0)
(-1.99443 -0.144943 -6.76833e-20)
(-1.81417 -0.144763 0)
(-1.63487 -0.143981 8.89154e-20)
(-1.45729 -0.142657 0)
(-1.28207 -0.140844 -1.12176e-19)
(-1.10979 -0.138579 -1.24623e-19)
(-0.940917 -0.135889 -1.37646e-19)
(-0.775873 -0.13278 0)
(-0.615021 -0.129298 0)
(-0.458578 -0.125687 0)
(-0.306793 -0.122313 0)
(-0.160093 -0.11975 0)
(-0.0161702 -0.11684 0)
(0.124129 -0.112143 0)
(0.257824 -0.106753 0)
(0.386743 -0.10133 2.3005e-19)
(0.51056 -0.0959979 2.26982e-19)
(0.629349 -0.0908104 0)
(0.743238 -0.0858076 0)
(0.852373 -0.0810139 0)
(0.956905 -0.0764414 2.14749e-19)
(1.05699 -0.0720945 0)
(1.15279 -0.0679718 0)
(1.24446 -0.0640685 0)
(1.33215 -0.0603779 0)
(1.41601 -0.0568922 -2.01406e-19)
(1.4962 -0.0536026 0)
(1.57286 -0.0504998 0)
(1.64613 -0.0475742 1.94865e-19)
(1.71615 -0.0448165 -1.92925e-19)
(1.78305 -0.0422172 0)
(1.84695 -0.0397675 -1.89383e-19)
(1.908 -0.0374594 0)
(1.96629 -0.0352852 1.86264e-19)
(2.02195 -0.0332376 0)
(2.07509 -0.0313094 0)
(2.12582 -0.0294936 0)
(2.17423 -0.0277834 0)
(2.22043 -0.0261726 0)
(2.26451 -0.0246549 -3.58194e-19)
(2.30655 -0.0232244 -3.5636e-19)
(2.34665 -0.0218757 0)
(2.38489 -0.0206039 0)
(2.42135 -0.0194047 0)
(2.45611 -0.0182739 3.50343e-19)
(2.48923 -0.0172076 0)
(2.52079 -0.0162021 0)
(2.55086 -0.0152537 0)
(2.5795 -0.0143589 3.46146e-19)
(2.60678 -0.0135147 -3.45341e-19)
(2.63275 -0.012718 0)
(2.65747 -0.0119663 0)
(2.68099 -0.011257 -3.43436e-19)
(2.70337 -0.0105879 -3.42957e-19)
(2.72466 -0.00995621 0)
(2.7449 -0.00935979 0)
(2.76415 -0.00879667 3.41932e-19)
(2.78245 -0.00826533 -3.41716e-19)
(2.79984 -0.00776428 0)
(2.81636 -0.00729192 0)
(2.83206 -0.00684669 -3.41398e-19)
(2.84696 -0.00642707 0)
(2.86112 -0.00603161 0)
(2.87455 -0.00565874 -3.41513e-19)
(2.8873 -0.00530691 0)
(2.8994 -0.00497492 -3.41792e-19)
(2.91089 -0.00466195 0)
(2.92178 -0.00436699 0)
(2.93212 -0.00408873 0)
(2.94192 -0.00382573 3.42744e-19)
(2.95121 -0.00357699 0)
(2.96001 -0.00334138 0)
(2.96834 -0.00311654 0)
(2.97621 -0.00290003 0)
(2.98362 -0.00268982 0)
(2.99059 -0.00248367 0)
(2.99708 -0.00227836 3.45445e-19)
(3.00309 -0.00207115 3.45951e-19)
(3.0086 -0.00185487 0)
(3.01351 -0.00161493 0)
(3.01772 -0.00133657 0)
(3.02103 -0.000998147 -3.48362e-19)
(3.02316 -0.000564161 0)
(3.02367 2.12667e-05 7.00645e-19)
(3.02184 0.000860494 -7.03471e-19)
(3.01642 0.00214928 -7.07329e-19)
(3.00531 0.00428918 7.1291e-19)
(2.98356 0.00835934 -7.21638e-19)
(2.94484 0.0172365 7.36574e-19)
(2.8238 0.0440481 0)
(0.0067641 -0.102495 0)
(0.0120511 -0.0736453 0)
(0.00141517 -0.03017 1.66822e-19)
(-0.0242394 0.018002 0)
(-0.0579716 0.060824 -1.11991e-19)
(-0.0985501 0.0972905 -9.47304e-20)
(-0.143789 0.127596 -4.05184e-20)
(-0.192721 0.151381 -3.53629e-20)
(-0.245219 0.168993 0)
(-0.301739 0.182028 -2.77928e-20)
(-0.361922 0.191719 0)
(-0.425258 0.198939 0)
(-0.491208 0.204291 4.16882e-20)
(-0.559228 0.20824 1.93757e-20)
(-0.628916 0.211117 -3.5883e-20)
(-0.69996 0.213051 -3.36267e-20)
(-0.772097 0.214187 -1.59632e-20)
(-0.845094 0.214666 0)
(-0.918752 0.214605 0)
(-0.992909 0.214104 0)
(-1.06743 0.213247 -1.30048e-20)
(-1.1422 0.212106 0)
(-1.21715 0.210743 3.68548e-20)
(-1.29218 0.209208 0)
(-1.36726 0.207544 0)
(-1.44233 0.205786 1.14135e-20)
(-1.51737 0.203962 0)
(-1.59234 0.202095 -1.09523e-20)
(-1.66722 0.200203 -2.12421e-20)
(-1.742 0.198299 1.05962e-20)
(-1.81666 0.196393 0)
(-1.89121 0.194493 0)
(-1.96561 0.192603 0)
(-2.03988 0.190726 -1.99347e-20)
(-2.114 0.188862 -1.97646e-20)
(-2.18795 0.187012 -9.95489e-21)
(-2.26173 0.185171 0)
(-2.33533 0.183335 1.9674e-20)
(-2.40873 0.181499 0)
(-2.48192 0.179655 -1.95005e-20)
(-2.55486 0.177797 0)
(-2.62753 0.175913 0)
(-2.6999 0.173996 1.9324e-20)
(-2.77194 0.172033 0)
(-2.84359 0.170011 5.71659e-20)
(-2.9148 0.167917 -1.92074e-20)
(-2.98552 0.165734 0)
(-3.05567 0.163443 -1.91419e-20)
(-3.12517 0.161023 -1.91081e-20)
(-3.19394 0.158451 0)
(-3.26187 0.155701 0)
(-3.32884 0.152744 0)
(-3.39471 0.149549 0)
(-3.45933 0.146078 0)
(-3.52253 0.142291 1.87856e-20)
(-3.58411 0.138141 3.69745e-20)
(-3.64385 0.133576 -1.85864e-20)
(-3.7015 0.128539 0)
(-3.75677 0.122966 3.62967e-20)
(-3.80937 0.116787 -1.78498e-20)
(-3.85892 0.109928 0)
(-3.90504 0.102308 -1.77089e-20)
(-3.94729 0.093843 0)
(-3.98518 0.0844482 0)
(-4.01818 0.0740381 -3.35796e-20)
(-4.04569 0.0625301 1.6417e-20)
(-4.0671 0.0498433 -3.20909e-20)
(-4.08176 0.0358962 3.12086e-20)
(-4.08896 0.0206206 1.49591e-20)
(-4.0878 0.00401898 0)
(-4.07768 -0.013781 1.3641e-20)
(-4.05785 -0.032621 0)
(-4.02766 -0.0523529 0)
(-3.9865 -0.0727743 0)
(-3.93389 -0.0936332 1.11135e-20)
(-3.86947 -0.114638 0)
(-3.79307 -0.135471 1.71413e-20)
(-3.70465 -0.155803 -2.1647e-20)
(-3.60441 -0.175308 -5.5172e-21)
(-3.4927 -0.19368 0)
(-3.37009 -0.210645 -2.81916e-21)
(-3.23728 -0.225974 0)
(-3.09514 -0.239486 1.78463e-22)
(-2.94467 -0.251058 0)
(-2.78693 -0.260621 6.3282e-21)
(-2.62305 -0.268159 -1.4983e-20)
(-2.45417 -0.273705 -1.27202e-20)
(-2.28144 -0.277336 0)
(-2.10597 -0.279163 0)
(-1.92881 -0.279323 0)
(-1.75093 -0.277974 2.59212e-20)
(-1.57325 -0.275283 0)
(-1.39657 -0.271422 -3.26291e-20)
(-1.2216 -0.266558 0)
(-1.04894 -0.260851 1.13939e-19)
(-0.879114 -0.254447 4.27947e-20)
(-0.712523 -0.247487 4.62266e-20)
(-0.549479 -0.240104 0)
(-0.390178 -0.232484 0)
(-0.234648 -0.225004 0)
(-0.0828935 -0.217679 0)
(0.0661965 -0.210393 0)
(0.208969 -0.202554 1.23768e-19)
(0.346865 -0.193688 1.25922e-19)
(0.479565 -0.184547 0)
(0.607271 -0.175591 -6.64205e-20)
(0.730055 -0.16691 -6.72435e-20)
(0.848023 -0.158545 0)
(0.961295 -0.150518 -1.34996e-19)
(1.07 -0.142834 0)
(1.17428 -0.135492 6.78889e-20)
(1.27426 -0.128488 0)
(1.3701 -0.121813 0)
(1.46193 -0.115457 -1.42209e-19)
(1.54991 -0.109409 0)
(1.63416 -0.103658 7.32493e-20)
(1.71483 -0.0981918 0)
(1.79206 -0.0929984 0)
(1.86598 -0.088066 7.35621e-20)
(1.93672 -0.083383 7.55405e-20)
(2.00441 -0.0789381 0)
(2.06916 -0.0747205 -7.5482e-20)
(2.13111 -0.0707199 0)
(2.19036 -0.0669261 7.6735e-20)
(2.24703 -0.0633293 1.55698e-19)
(2.30123 -0.05992 0)
(2.35305 -0.0566886 0)
(2.4026 -0.0536261 0)
(2.44997 -0.0507237 0)
(2.49527 -0.0479729 1.62344e-19)
(2.53857 -0.0453659 4.8911e-19)
(2.57996 -0.0428952 0)
(2.61952 -0.0405543 0)
(2.65734 -0.0383368 0)
(2.69349 -0.0362364 -1.68154e-19)
(2.72805 -0.0342471 0)
(2.76107 -0.0323634 0)
(2.79264 -0.0305797 3.42535e-19)
(2.82282 -0.0288911 1.7207e-19)
(2.85166 -0.0272925 1.74118e-19)
(2.87923 -0.0257795 0)
(2.90559 -0.0243477 0)
(2.93078 -0.0229929 1.77754e-19)
(2.95487 -0.0217111 -1.78347e-19)
(2.9779 -0.0204988 0)
(2.99992 -0.0193523 0)
(3.02098 -0.0182689 -1.82639e-19)
(3.04113 -0.0172457 5.51092e-19)
(3.06041 -0.0162797 0)
(3.07885 -0.015368 0)
(3.09651 -0.0145076 1.87523e-19)
(3.11341 -0.0136958 0)
(3.12959 -0.0129299 3.79528e-19)
(3.1451 -0.0122075 -1.90806e-19)
(3.15995 -0.0115261 0)
(3.1742 -0.010884 1.93553e-19)
(3.18787 -0.0102795 3.89184e-19)
(3.20099 -0.00971042 0)
(3.21359 -0.00917436 0)
(3.22569 -0.00866865 -1.98251e-19)
(3.23732 -0.00819064 0)
(3.2485 -0.00773734 4.00855e-19)
(3.25924 -0.00730424 0)
(3.26957 -0.00688623 0)
(3.27948 -0.0064779 0)
(3.28898 -0.00607274 0)
(3.29807 -0.00566182 -2.06113e-19)
(3.30671 -0.00523549 -2.07217e-19)
(3.31483 -0.00477694 0)
(3.32238 -0.00425586 0)
(3.32926 -0.00363388 0)
(3.33529 -0.00285566 2.1165e-19)
(3.34021 -0.00183223 0)
(3.34357 -0.000421364 -4.28328e-19)
(3.34473 0.00162681 4.31334e-19)
(3.34257 0.00478029 4.34997e-19)
(3.33534 0.00995854 4.39555e-19)
(3.31928 0.0193468 4.46923e-19)
(3.29215 0.0383232 4.57061e-19)
(3.22463 0.0836909 0)
(-0.0153782 -0.0887096 0)
(-0.0348074 -0.0265809 0)
(-0.0699302 0.0403746 -9.97972e-20)
(-0.109107 0.098146 -7.66616e-20)
(-0.151021 0.147753 6.41747e-20)
(-0.195317 0.190313 5.54633e-20)
(-0.241834 0.226271 1.24118e-22)
(-0.29052 0.255872 0)
(-0.341555 0.279582 0)
(-0.395088 0.298246 0)
(-0.451031 0.31275 0)
(-0.509181 0.323883 0)
(-0.569272 0.332292 -8.52428e-20)
(-0.631013 0.338497 0)
(-0.694124 0.342885 2.50243e-20)
(-0.758376 0.345752 2.36688e-20)
(-0.82358 0.347355 0)
(-0.889577 0.347916 0)
(-0.956227 0.347627 0)
(-1.02341 0.346647 0)
(-1.09102 0.345114 1.90966e-20)
(-1.15898 0.343139 0)
(-1.22721 0.340819 -1.79631e-20)
(-1.29565 0.338233 0)
(-1.36426 0.335445 0)
(-1.43297 0.332509 0)
(-1.50177 0.329467 -3.2716e-20)
(-1.57063 0.326354 0)
(-1.6395 0.323195 1.58987e-20)
(-1.70838 0.320011 -3.12355e-20)
(-1.77725 0.316816 0)
(-1.84608 0.313621 0)
(-1.91487 0.310431 0)
(-1.98358 0.30725 1.50983e-20)
(-2.05222 0.304076 1.49999e-20)
(-2.12075 0.300907 0)
(-2.18916 0.297737 0)
(-2.25743 0.294557 -2.93958e-20)
(-2.32554 0.291356 -2.93002e-20)
(-2.39345 0.288122 2.92233e-20)
(-2.46114 0.284842 0)
(-2.52857 0.281499 0)
(-2.5957 0.278077 0)
(-2.66249 0.274555 0)
(-2.72888 0.270912 -2.92129e-20)
(-2.79481 0.267123 -2.9007e-20)
(-2.86023 0.26316 2.89884e-20)
(-2.92504 0.258992 0)
(-2.98916 0.254586 0)
(-3.0525 0.249905 0)
(-3.11495 0.244907 0)
(-3.17638 0.239546 -2.882e-20)
(-3.23666 0.233772 0)
(-3.29563 0.227528 0)
(-3.35311 0.220751 -2.85607e-20)
(-3.40891 0.213369 -2.85321e-20)
(-3.46281 0.205304 0)
(-3.51457 0.196469 5.61647e-20)
(-3.56392 0.186769 -2.7905e-20)
(-3.61055 0.176101 2.76192e-20)
(-3.65413 0.164355 0)
(-3.69429 0.151413 0)
(-3.73062 0.137154 0)
(-3.76265 0.121451 0)
(-3.7899 0.104183 2.54302e-20)
(-3.81182 0.0852319 4.99869e-20)
(-3.82783 0.064487 2.41227e-20)
(-3.83737 0.0418481 -2.33627e-20)
(-3.83974 0.0172422 0)
(-3.83412 -0.00929591 4.3874e-20)
(-3.82004 -0.0376132 4.18446e-20)
(-3.79674 -0.0675332 3.96449e-20)
(-3.7636 -0.0988189 -3.72697e-20)
(-3.72002 -0.131153 0)
(-3.66554 -0.164142 -4.73025e-20)
(-3.59978 -0.197328 0)
(-3.52255 -0.230207 1.37906e-20)
(-3.43379 -0.262252 1.05391e-20)
(-3.33365 -0.292941 0)
(-3.22248 -0.321778 0)
(-3.1008 -0.348318 1.2089e-20)
(-2.9693 -0.372187 0)
(-2.82883 -0.393094 4.32833e-21)
(-2.68036 -0.410839 0)
(-2.52494 -0.425315 3.79413e-21)
(-2.36369 -0.436503 1.80984e-20)
(-2.19771 -0.444465 0)
(-2.02815 -0.449337 0)
(-1.85607 -0.451306 0)
(-1.6825 -0.450608 2.46878e-20)
(-1.50839 -0.447507 0)
(-1.33459 -0.442286 3.29473e-20)
(-1.16187 -0.43523 0)
(-0.990875 -0.426624 0)
(-0.822173 -0.416743 -9.23109e-20)
(-0.656224 -0.40585 0)
(-0.493379 -0.394229 -5.28294e-20)
(-0.333932 -0.382141 0)
(-0.17797 -0.36989 -6.04921e-20)
(-0.0255339 -0.357547 0)
(0.122651 -0.344884 0)
(0.265607 -0.331791 0)
(0.403245 -0.318164 -2.12387e-19)
(0.53602 -0.30424 -7.36612e-20)
(0.66404 -0.290358 0)
(0.787376 -0.276763 0)
(0.906101 -0.263565 0)
(1.0203 -0.25082 0)
(1.13006 -0.238554 8.05703e-20)
(1.2355 -0.22678 -1.60923e-19)
(1.33673 -0.215497 -8.29375e-20)
(1.43387 -0.204701 1.65767e-19)
(1.52705 -0.194384 1.68079e-19)
(1.61639 -0.184535 8.62219e-20)
(1.70203 -0.175139 0)
(1.78409 -0.166183 1.74682e-19)
(1.8627 -0.157652 0)
(1.93799 -0.14953 -1.78881e-19)
(2.01009 -0.141801 -9.12707e-20)
(2.07911 -0.134449 0)
(2.14518 -0.12746 1.84995e-19)
(2.20841 -0.120817 9.41777e-20)
(2.26892 -0.114505 0)
(2.32682 -0.108511 9.48883e-20)
(2.38222 -0.102819 -2.9003e-19)
(2.43521 -0.0974156 0)
(2.48589 -0.0922876 0)
(2.53438 -0.0874217 0)
(2.58075 -0.0828049 0)
(2.62509 -0.078425 -2.02903e-19)
(2.6675 -0.0742702 -2.05713e-19)
(2.70806 -0.0703296 0)
(2.74685 -0.066593 0)
(2.78393 -0.0630503 0)
(2.8194 -0.059692 0)
(2.85332 -0.0565092 0)
(2.88575 -0.053493 0)
(2.91677 -0.0506354 -2.19587e-19)
(2.94643 -0.0479284 -5.17618e-22)
(2.97481 -0.0453647 0)
(3.00195 -0.042937 0)
(3.02791 -0.0406384 -2.27232e-19)
(3.05275 -0.0384623 0)
(3.07652 -0.0364027 2.31736e-19)
(3.09926 -0.034454 2.33403e-19)
(3.12104 -0.0326111 0)
(3.14188 -0.0308692 0)
(3.16185 -0.0292233 -2.39878e-19)
(3.18097 -0.0276687 -4.83221e-19)
(3.1993 -0.0262006 0)
(3.21686 -0.0248146 0)
(3.2337 -0.0235061 0)
(3.24985 -0.0222713 -2.49967e-19)
(3.26535 -0.0211065 2.51962e-19)
(3.28024 -0.0200082 0)
(3.29454 -0.0189733 5.1142e-19)
(3.30829 -0.0179988 2.57481e-19)
(3.32152 -0.0170811 -5.19251e-19)
(3.33425 -0.0162166 0)
(3.34651 -0.0154011 0)
(3.35833 -0.0146299 -5.30733e-19)
(3.36972 -0.013898 -2.67395e-19)
(3.38071 -0.0131989 0)
(3.3913 -0.0125251 0)
(3.40152 -0.0118673 0)
(3.41135 -0.0112142 0)
(3.42079 -0.0105508 -5.52715e-19)
(3.42982 -0.00985703 0)
(3.4384 -0.00910641 0)
(3.44645 -0.00825863 0)
(3.45388 -0.00725282 0)
(3.46054 -0.00599948 0)
(3.46618 -0.0043598 0)
(3.47045 -0.00211346 -5.79043e-19)
(3.47281 0.00111155 0)
(3.4724 0.0059841 0)
(3.46807 0.0137443 -1.19699e-18)
(3.45757 0.0269953 6.10524e-19)
(3.44161 0.0512108 -6.30104e-19)
(3.40745 0.0989978 6.59414e-19)
(-0.0334662 -0.0169628 0)
(-0.0660372 0.0629615 2.16847e-19)
(-0.10907 0.130124 0)
(-0.154639 0.188677 5.50648e-20)
(-0.200423 0.240183 0)
(-0.246521 0.285018 0)
(-0.293336 0.323375 -3.58657e-20)
(-0.34112 0.355576 0)
(-0.390079 0.382124 0)
(-0.440356 0.403663 0)
(-0.491997 0.420867 0)
(-0.544974 0.434379 0)
(-0.599206 0.444778 8.80797e-20)
(-0.654581 0.452564 4.15962e-20)
(-0.710975 0.458157 -3.94226e-20)
(-0.768269 0.46191 0)
(-0.826361 0.464123 0)
(-0.885155 0.465055 0)
(-0.944565 0.464928 0)
(-1.00451 0.463932 0)
(-1.06493 0.462229 3.10513e-20)
(-1.12575 0.459956 3.01861e-20)
(-1.18691 0.457226 -2.9425e-20)
(-1.24838 0.454137 2.8756e-20)
(-1.31009 0.450768 0)
(-1.37201 0.447183 0)
(-1.43412 0.443437 2.71679e-20)
(-1.49636 0.43957 0)
(-1.55873 0.435618 0)
(-1.62118 0.431604 2.61637e-20)
(-1.68371 0.427548 2.59224e-20)
(-1.74628 0.423463 2.57069e-20)
(-1.80887 0.419358 0)
(-1.87147 0.415235 0)
(-1.93406 0.411095 -2.52476e-20)
(-1.9966 0.406932 0)
(-2.05909 0.402738 0)
(-2.12149 0.398504 2.50324e-20)
(-2.18378 0.394214 -2.49324e-20)
(-2.24593 0.389853 2.49007e-20)
(-2.30791 0.385402 0)
(-2.36968 0.38084 0)
(-2.4312 0.376142 4.98117e-20)
(-2.49241 0.371281 0)
(-2.55328 0.366227 4.98457e-20)
(-2.61374 0.360946 7.48336e-20)
(-2.67372 0.3554 -7.48689e-20)
(-2.73315 0.349548 4.99182e-20)
(-2.79194 0.343344 0)
(-2.84999 0.336736 0)
(-2.9072 0.32967 4.99155e-20)
(-2.96345 0.322084 2.49341e-20)
(-3.0186 0.313908 0)
(-3.07251 0.305067 0)
(-3.125 0.295475 2.47538e-20)
(-3.17588 0.285039 4.93969e-20)
(-3.22495 0.273655 0)
(-3.27197 0.261208 -4.87259e-20)
(-3.3167 0.247574 4.85344e-20)
(-3.35882 0.232618 -4.81171e-20)
(-3.39804 0.216194 0)
(-3.43399 0.198149 0)
(-3.46629 0.17832 0)
(-3.4945 0.156543 0)
(-3.51815 0.132656 0)
(-3.53672 0.106503 -4.31964e-20)
(-3.54966 0.0779404 0)
(-3.55644 0.0468451 0)
(-3.55633 0.0131336 0)
(-3.54873 -0.0231595 -7.60375e-20)
(-3.53296 -0.0618744 -3.57448e-20)
(-3.50836 -0.102797 -3.37594e-20)
(-3.47426 -0.145617 6.43353e-20)
(-3.43008 -0.18991 -3.04988e-20)
(-3.37531 -0.23515 2.69695e-20)
(-3.30956 -0.280712 0)
(-3.2326 -0.325906 -2.17809e-20)
(-3.14437 -0.369999 0)
(-3.04499 -0.412259 0)
(-2.93481 -0.451985 0)
(-2.81434 -0.488544 -2.1362e-20)