/*--------------------------------*- C++ -*----------------------------------*\
| =========                 |                                                 |
| \\      /  F ield         | OpenFOAM: The Open Source CFD Toolbox           |
|  \\    /   O peration     | Version:  1.4.2                                 |
|   \\  /    A nd           | Web:      http://www.openfoam.org               |
|    \\/     M anipulation  |                                                 |
\*---------------------------------------------------------------------------*/
FoamFile
{
    version     2.0;
    format      ascii;
    class       volScalarField;
    object      epsilon;
    location    "900";
}
// * * * * * * * * * * * * * * * * * * * * * * * * * * * * * * * * * * * * * //

dimensions      [0 2 -3 0 0 0 0];

internalField   nonuniform List<scalar> 
12225
(
443.026
353.452
290.586
245.345
212.188
187.594
169.245
155.572
145.485
138.21
133.183
129.985
128.3
127.881
128.529
130.083
132.409
135.67
60.1656
73.6156
79.5681
83.6951
87.7143
92.354
97.9687
104.74
112.767
122.1
132.759
144.738
157.999
172.479
188.082
204.67
221.998
240.133
26.2958
33.71
37.845
40.6833
42.9299
44.9526
46.9639
49.0918
51.4157
53.9867
56.8366
59.9835
63.4335
67.1807
71.2045
75.4614
79.8618
84.2426
18.7355
22.7235
25.4806
27.3758
28.8178
30.0126
31.0724
32.0707
33.0568
34.0635
35.1123
36.2168
37.3842
38.6163
39.9094
41.2528
42.6266
43.9868
16.1687
18.1634
19.9326
21.292
22.3446
23.1852
23.8877
24.5054
25.0723
25.6103
26.1342
26.6543
27.1775
27.7073
28.2451
28.7896
29.337
29.8683
15.2354
16.0864
17.0484
17.9368
18.6892
19.3116
19.8309
20.2729
20.659
21.0059
21.3259
21.6276
21.9171
22.1984
22.4739
22.7446
23.0098
23.259
14.8942
15.17
15.5864
16.0522
16.5062
16.9217
17.2896
17.6101
17.8892
18.1348
18.3542
18.5533
18.7368
18.9084
19.0708
19.2254
19.3723
19.5053
14.7876
14.838
14.9915
15.2092
15.4537
15.7009
15.9368
16.1543
16.351
16.5276
16.6862
16.8291
16.959
17.0782
17.1887
17.2919
17.3884
17.4747
14.7441
14.6884
14.7003
14.7662
14.8675
14.9882
15.1163
15.2439
15.3662
15.4805
15.586
15.6827
15.7712
15.8523
15.927
15.9961
16.0602
16.1177
14.7239
14.6134
14.5425
14.5091
14.5063
14.5261
14.5613
14.6058
14.655
14.7057
14.7558
14.8039
14.8493
14.8918
14.9314
14.9682
15.0024
15.033
14.7149
14.579
14.4658
14.3758
14.3077
14.2585
14.2249
14.2034
14.191
14.1852
14.184
14.1858
14.1895
14.1943
14.1995
14.205
14.2103
14.215
14.7109
14.5642
14.4319
14.3142
14.2111
14.1218
14.0449
13.9791
13.9228
13.8744
13.8326
13.7964
13.7645
13.7363
13.711
13.6881
13.6673
13.6482
14.7089
14.5577
14.4176
14.2882
14.1691
14.0601
13.9605
13.8699
13.7873
13.7121
13.6436
13.5809
13.5235
13.4707
13.422
13.3769
13.335
13.2966
14.7076
14.5544
14.4112
14.2772
14.1518
14.0345
13.925
13.8227
13.7273
13.6382
13.5551
13.4774
13.4048
13.3368
13.2731
13.2134
13.1573
13.1055
14.7067
14.5523
14.4076
14.2717
14.1439
14.0235
13.9101
13.8033
13.7025
13.6074
13.5177
13.433
13.3531
13.2774
13.2059
13.1383
13.0744
13.015
14.706
14.5507
14.4052
14.2684
14.1394
14.0178
13.9029
13.7943
13.6915
13.5941
13.5018
13.4143
13.3313
13.2524
13.1775
13.1063
13.0389
12.976
14.7055
14.5497
14.4036
14.2662
14.1367
14.0144
13.8988
13.7894
13.6857
13.5874
13.4941
13.4054
13.3212
13.241
13.1648
13.0923
13.0234
12.9591
14.7053
14.5494
14.403
14.2654
14.1356
14.013
13.8971
13.7873
13.6833
13.5846
13.4909
13.4019
13.3173
13.2369
13.1603
13.0875
13.0184
12.9539
14.7055
14.5497
14.4035
14.2659
14.1362
14.0138
13.8981
13.7886
13.685
13.5868
13.4937
13.4054
13.3216
13.2421
13.1666
13.0948
13.0269
12.9637
14.706
14.5507
14.4051
14.2683
14.1396
14.0185
13.9045
13.7971
13.6959
13.6006
13.5107
13.426
13.346
13.2705
13.1992
13.1318
13.0684
13.0096
14.7068
14.5528
14.4093
14.2755
14.151
14.0353
13.9279
13.8284
13.7361
13.6504
13.5709
13.4968
13.4279
13.3636
13.3034
13.2471
13.1944
13.1461
14.7086
14.5589
14.4227
14.3001
14.1905
14.0931
14.0068
13.9303
13.8623
13.8016
13.747
13.6976
13.6526
13.6113
13.5731
13.5376
13.5046
13.4743
14.7142
14.5802
14.4708
14.3853
14.3209
14.2739
14.2405
14.2172
14.2011
14.1898
14.1815
14.175
14.1693
14.1638
14.1581
14.1519
14.1451
14.1383
14.7358
14.6588
14.6349
14.6534
14.7004
14.7639
14.8349
14.9068
14.9754
15.0383
15.0944
15.1431
15.1847
15.2195
15.2481
15.2713
15.2898
15.3046
14.8205
14.9298
15.138
15.3947
15.6602
15.9123
16.14
16.3384
16.5073
16.6492
16.7675
16.8658
16.9471
17.0143
17.0699
17.1159
17.154
17.1858
15.1412
15.7855
16.517
17.2068
17.7961
18.2812
18.6742
18.9897
19.2424
19.4453
19.6092
19.7427
19.8527
19.9444
20.0219
20.0885
20.1466
20.1979
16.3189
18.2995
19.9621
21.2351
22.1813
22.8822
23.4044
23.7998
24.1052
24.3458
24.5398
24.7003
24.8371
24.9574
25.0667
25.1688
25.2666
25.3618
20.7544
25.6375
28.6922
30.5982
31.8393
32.6632
33.2222
33.6186
33.9176
34.1614
34.3774
34.5834
34.7909
35.0073
35.2369
35.4819
35.7431
36.0195
43.9611
54.4815
58.7074
60.4208
60.9763
60.9916
60.8476
60.7575
60.7885
60.9698
61.3104
61.8087
62.4574
63.2463
64.1638
65.1974
66.3324
67.5614
332.626
280.253
240.732
210.192
186.153
166.94
151.386
138.653
128.129
119.361
112.006
105.799
100.536
96.0549
92.2271
88.9494
86.1385
83.7249
0.00471706
0.00568123
0.00780764
0.0103917
0.0131177
0.0158074
0.0183819
0.0208202
0.0231377
0.0253849
0.0276545
0.0300774
0.032795
0.0359717
0.039743
0.0441398
0.0492602
0.0552458
0.0622477
0.0703424
0.0796081
0.0900903
0.101879
0.115169
0.130335
0.147865
0.168203
0.190992
0.216883
0.246334
0.279758
0.317555
0.360131
0.4079
0.461291
0.520754
0.586763
0.659822
0.740467
0.829272
0.92685
1.03386
1.15099
1.27902
1.41873
1.57099
1.73674
1.91695
2.1127
2.32514
2.55549
2.8051
3.0754
3.36799
3.68459
4.02711
4.39769
4.79871
5.23289
5.70336
6.21375
6.76834
7.37223
8.03161
8.75399
9.5487
10.4274
11.4048
12.4998
13.7371
15.15
16.7842
18.706
21.0149
23.8674
27.515
32.3639
39.0579
41.9126
44.7923
47.8246
51.0195
54.3831
57.921
61.6386
65.5412
69.6338
73.9213
78.4083
83.0989
87.9972
93.1068
98.4308
103.972
109.734
115.717
121.923
128.355
135.011
141.893
149
156.331
163.884
171.657
179.647
187.849
196.259
204.869
213.671
222.657
231.815
241.132
250.594
260.184
269.883
279.672
289.529
299.432
309.359
319.289
329.203
339.085
348.93
358.747
368.579
378.305
387.886
397.309
406.57
415.664
424.588
433.339
441.917
450.321
458.552
466.613
474.507
482.238
489.81
497.228
504.499
511.627
518.617
525.475
532.205
538.809
545.29
551.649
557.886
563.999
569.986
575.841
581.555
587.117
592.514
597.729
602.741
607.528
612.063
616.317
620.254
623.837
627.022
629.763
632.008
633.704
634.789
635.199
634.865
633.716
631.672
628.665
624.609
619.502
613.329
606.47
599.576
591.693
582.642
568.033
0.0131877
0.0122185
0.013015
0.0142354
0.0155583
0.0169209
0.0183339
0.019834
0.0214798
0.0233562
0.025583
0.0282816
0.0315719
0.0355403
0.0402819
0.0459207
0.0525994
0.06048
0.0697799
0.0807921
0.0939707
0.109161
0.126571
0.146517
0.16928
0.195112
0.224224
0.256788
0.293036
0.3332
0.377513
0.426207
0.479523
0.537715
0.601048
0.66981
0.744311
0.824887
0.911904
1.00576
1.10689
1.21577
1.3329
1.45884
1.59418
1.73957
1.89571
2.06335
2.2433
2.43644
2.64372
2.86618
3.10495
3.36126
3.63646
3.93206
4.24971
4.59126
4.95878
5.35461
5.78139
6.24213
6.74026
7.27976
7.86518
8.50181
9.19577
9.9542
10.7854
11.699
12.706
13.819
15.0517
16.4173
17.9255
19.5738
21.3299
23.0942
24.6241
26.1767
27.7992
29.5003
31.2832
33.1503
35.1039
37.1459
39.2786
41.5037
43.823
46.2383
48.7509
51.3621
54.0733
56.8852
59.7987
62.8143
65.9323
69.1529
72.4759
75.9007
79.4267
83.0528
86.7775
90.5992
94.5154
98.5236
102.62
106.802
111.065
115.404
119.812
124.285
128.816
133.397
138.02
142.679
147.363
152.066
156.78
161.498
166.214
170.925
175.631
180.335
185.054
189.73
194.346
198.899
203.384
207.8
212.146
216.418
220.618
224.744
228.797
232.776
236.683
240.52
244.287
247.986
251.62
255.188
258.695
262.14
265.525
268.851
272.118
275.326
278.476
281.565
284.592
287.554
290.448
293.268
296.009
298.664
301.224
303.679
306.02
308.233
310.304
312.219
313.96
315.508
316.844
317.945
318.788
319.349
319.601
319.517
319.07
318.235
316.99
315.339
313.309
311.042
308.713
306.114
303.333
301.303
0.0243669
0.0206859
0.0203523
0.0209309
0.0218872
0.0231153
0.0246359
0.0265034
0.0288195
0.0316737
0.0351778
0.0394915
0.0446347
0.0507279
0.0579543
0.0665603
0.0767124
0.0884644
0.102055
0.117714
0.135645
0.15599
0.178907
0.204572
0.233171
0.264895
0.299939
0.338501
0.380784
0.427001
0.477376
0.532146
0.591557
0.655875
0.725381
0.800381
0.881203
0.968206
1.06178
1.16233
1.27033
1.38627
1.51066
1.64408
1.78715
1.94052
2.10491
2.28106
2.46979
2.672
2.88861
3.12067
3.36926
3.63561
3.921
4.22685
4.55472
4.9063
5.28342
5.68814
6.12266
6.58943
7.09111
7.63063
8.21115
8.83611
9.50916
10.2342
11.0152
11.8563
12.7611
13.7328
14.7733
15.8822
17.0553
18.2833
19.5504
20.8367
22.1303
23.4682
24.8654
26.3271
27.8559
29.4537
31.1223
32.8634
34.6783
36.5688
38.5359
40.5811
42.7053
44.9095
47.1946
49.5611
52.0095
54.5401
57.153
59.8481
62.6248
65.4828
68.421
71.4383
74.5334
77.7045
80.9496
84.2662
87.6517
91.1029
94.6164
98.1882
101.814
105.489
109.209
112.968
116.76
120.579
124.42
128.277
132.143
136.014
139.885
143.753
147.615
151.47
155.31
159.11
162.859
166.554
170.191
173.768
177.282
180.731
184.114
187.43
190.679
193.859
196.972
200.016
202.994
205.904
208.749
211.529
214.244
216.896
219.485
222.011
224.476
226.878
229.219
231.496
233.709
235.856
237.936
239.945
241.881
243.737
245.51
247.194
248.782
250.266
251.638
252.889
254.008
254.983
255.802
256.452
256.919
257.187
257.242
257.067
256.647
255.97
255.027
253.822
252.385
250.796
249.144
247.397
245.732
245.177
0.0409762
0.0314778
0.0293182
0.0292994
0.0302528
0.0318908
0.0342148
0.0371628
0.0407982
0.0452491
0.0506479
0.0569967
0.0643725
0.0729496
0.082909
0.0944309
0.10768
0.122805
0.139968
0.159323
0.181019
0.205198
0.232
0.261581
0.294112
0.329782
0.36879
0.411347
0.457673
0.508
0.562576
0.621663
0.685539
0.754503
0.828871
0.908988
0.995219
1.08796
1.18764
1.2947
1.40965
1.533
1.66532
1.80722
1.95932
2.12233
2.29698
2.48405
2.68439
2.89889
3.12854
3.37435
3.63743
3.91899
4.22028
4.5427
4.8877
5.25686
5.65188
6.07455
6.52681
7.01069
7.52834
8.08203
8.67408
9.30688
9.98278
10.7041
11.473
12.2915
13.1608
14.0819
15.0547
16.0782
17.1501
18.267
19.4255
20.6238
21.8651
23.1588
24.5109
25.9247
27.4024
28.9457
30.5565
32.2362
33.9864
35.8084
37.7035
39.6729
41.7175
43.8383
46.036
48.3112
50.6642
53.0952
55.6042
58.1911
60.8552
63.5961
66.4126
69.3036
72.2678
75.3033
78.4082
81.5802
84.8167
88.115
91.4718
94.8837
98.3469
101.857
105.41
109.001
112.625
116.277
119.95
123.64
127.341
131.047
134.753
138.454
142.145
145.822
149.469
153.071
156.62
160.112
163.541
166.906
170.203
173.43
176.584
179.663
182.667
185.594
188.443
191.214
193.907
196.522
199.058
201.517
203.898
206.203
208.432
210.585
212.663
214.666
216.594
218.447
220.226
221.928
223.555
225.103
226.572
227.958
229.26
230.474
231.595
232.618
233.54
234.353
235.052
235.628
236.074
236.381
236.54
236.541
236.374
236.03
235.5
234.776
233.855
232.746
231.474
230.092
228.662
227.217
225.94
225.611
0.0632643
0.0447315
0.0402085
0.0397806
0.0411232
0.0435777
0.046948
0.051196
0.0563935
0.0625286
0.0695937
0.0777336
0.0870963
0.097837
0.11011
0.124065
0.139844
0.157582
0.17741
0.199456
0.223853
0.250737
0.280252
0.31256
0.34784
0.386286
0.428111
0.47354
0.522814
0.576186
0.63393
0.696333
0.763705
0.836375
0.914695
0.99904
1.08981
1.18744
1.29238
1.40513
1.5262
1.65615
1.79558
1.94512
2.10543
2.27725
2.46132
2.65847
2.86957
3.09552
3.33732
3.59602
3.87272
4.16861
4.48495
4.82307
5.18438
5.57038
5.98263
6.4228
6.8926
7.39381
7.92829
8.4979
9.10453
9.75004
10.4362
11.1648
11.9373
12.755
13.619
14.53
15.4883
16.4942
17.5473
18.6478
19.7962
20.9942
22.2451
23.553
24.9214
26.3529
27.8497
29.4136
31.0464
32.7498
34.5254
36.3748
38.2992
40.3
42.3782
44.5349
46.7708
49.0865
51.4825
53.959
56.5159
59.153
61.8698
64.6657
67.5395
70.4901
73.516
76.6154
79.7864
83.0266
86.3337
89.7048
93.1368
96.6266
100.17
103.764
107.404
111.085
114.803
118.551
122.324
126.116
129.92
133.731
137.541
141.343
145.133
148.896
152.618
156.288
159.897
163.441
166.914
170.311
173.63
176.867
180.018
183.081
186.054
188.936
191.723
194.416
197.014
199.516
201.922
204.231
206.445
208.564
210.587
212.517
214.352
216.095
217.746
219.305
220.773
222.15
223.437
224.634
225.74
226.755
227.677
228.505
229.238
229.872
230.406
230.836
231.159
231.369
231.463
231.434
231.278
230.989
230.559
229.984
229.259
228.38
227.349
226.174
224.877
223.5
222.085
220.698
219.496
219.007
0.0917616
0.0610069
0.0537662
0.0527666
0.0543671
0.0575347
0.0619185
0.0674314
0.0738852
0.081289
0.0897629
0.0994396
0.110454
0.122941
0.137031
0.15285
0.170522
0.190165
0.211901
0.235851
0.262146
0.290928
0.322352
0.356589
0.393826
0.434269
0.478141
0.525681
0.577144
0.632802
0.692949
0.757895
0.827971
0.903533
0.984958
1.07265
1.16703
1.26856
1.37772
1.49503
1.62104
1.75632
1.9015
2.05723
2.22421
2.40319
2.59494
2.80032
3.02019
3.25551
3.50728
3.77654
4.06443
4.37212
4.70085
5.05195
5.42679
5.82681
6.25353
6.70849
7.19332
7.70968
8.25926
8.84376
9.46488
10.1243
10.8237
11.5646
12.3484
13.1767
14.0505
14.971
15.9394
16.9567
18.024
19.1429
20.315
21.5429
22.8294
24.1774
25.5899
27.0691
28.6175
30.237
31.9298
33.6977
35.5427
37.4664
39.4704
41.5563
43.7253
45.9786
48.3172
50.7418
53.2529
55.8509
58.5357
61.3072
64.1649
67.1081
70.1357
73.2465
76.4389
79.7111
83.0611
86.4865
89.9849
93.5535
97.1893
100.889
104.649
108.465
112.334
116.249
120.207
124.201
128.225
132.272
136.334
140.403
144.471
148.53
152.57
156.571
160.521
164.408
168.225
171.965
175.622
179.191
182.666
186.043
189.319
192.49
195.553
198.504
201.342
204.065
206.672
209.161
211.532
213.785
215.919
217.936
219.835
221.617
223.283
224.834
226.272
227.597
228.811
229.916
230.912
231.8
232.583
233.262
233.835
234.305
234.671
234.932
235.089
235.14
235.086
234.924
234.651
234.266
233.766
233.148
232.409
231.547
230.56
229.448
228.212
226.866
225.42
223.917
222.392
220.905
219.579
218.765
0.125985
0.0800686
0.0693974
0.067427
0.069071
0.0728129
0.0780382
0.0843357
0.0916802
0.100123
0.109751
0.120666
0.132977
0.146797
0.162237
0.179411
0.198431
0.219409
0.242466
0.267726
0.295328
0.325419
0.358165
0.393744
0.432352
0.474203
0.519527
0.568571
0.621603
0.678908
0.74079
0.807576
0.879615
0.957276
1.04096
1.13107
1.22808
1.33244
1.44466
1.56528
1.69486
1.83401
1.98335
2.14358
2.3154
2.49957
2.69692
2.90828
3.13457
3.37674
3.63581
3.91285
4.20899
4.52541
4.86337
5.22417
5.60919
6.01985
6.45765
6.92411
7.42083
7.94943
8.51157
9.10894
9.74323
10.4161
11.1294
11.8846
12.6834
13.5275
14.4184
15.3579
16.3476
17.3892
18.4848
19.6364
20.8464
22.1176
23.4527
24.8545
26.3259
27.8695
29.4878
31.1832
32.9582
34.8149
36.7556
38.7824
40.8972
43.1018
45.3977
47.7865
50.2694
52.8471
55.5206
58.2902
61.1561
64.118
67.1757
70.3283
73.5748
76.9138
80.3438
83.8628
87.4687
91.1592
94.9315
98.7829
102.71
106.71
110.779
114.913
119.108
123.358
127.657
132.001
136.38
140.788
145.214
149.65
154.085
158.509
162.904
167.247
171.527
175.735
179.859
183.894
187.831
191.664
195.386
198.994
202.481
205.843
209.075
212.175
215.139
217.965
220.65
223.193
225.593
227.85
229.962
231.931
233.756
235.439
236.981
238.382
239.644
240.769
241.76
242.619
243.347
243.948
244.423
244.776
245.008
245.122
245.12
245.002
244.771
244.43
243.979
243.419
242.75
241.973
241.088
240.097
238.997
237.788
236.473
235.055
233.529
231.919
230.233
228.503
226.758
225.05
223.463
222.239
0.163616
0.100845
0.0860723
0.0828465
0.0843339
0.0883011
0.0938537
0.100714
0.108788
0.118072
0.128611
0.140476
0.153753
0.168538
0.184931
0.203037
0.222965
0.244831
0.268756
0.294873
0.323327
0.354272
0.387881
0.424336
0.46384
0.506609
0.552877
0.602897
0.656942
0.715302
0.77829
0.84624
0.91951
0.99848
1.08355
1.17517
1.27377
1.37985
1.49393
1.61654
1.74828
1.88975
2.0416
2.20454
2.37929
2.56662
2.76737
2.9824
3.21263
3.45904
3.72266
4.00458
4.30594
4.62795
4.97187
5.33903
5.73081
6.14867
6.59411
7.06869
7.57405
8.11183
8.68377
9.29161
9.93715
10.6222
11.3487
12.1184
12.9334
13.7956
14.7069
15.6696
16.6857
17.7577
18.888
20.0793
21.3343
22.6561
24.0476
25.512
27.0523
28.6714
30.3723
32.1579
34.031
35.9942
38.0503
40.2017
42.4507
44.7996
47.2504
49.8047
52.4641
55.2298
58.1027
61.0834
64.1722
67.369
70.6734
74.0847
77.6018
81.2231
84.947
88.7715
92.6942
96.7127
100.824
105.025
109.313
113.684
118.135
122.66
127.257
131.918
136.639
141.412
146.229
151.079
155.954
160.84
165.726
170.598
175.422
180.185
184.873
189.474
193.98
198.38
202.666
206.831
210.867
214.769
218.528
222.141
225.602
228.906
232.049
235.028
237.841
240.485
242.959
245.261
247.392
249.35
251.137
252.753
254.199
255.477
256.588
257.535
258.321
258.948
259.421
259.741
259.913
259.942
259.83
259.581
259.199
258.687
258.05
257.291
256.416
255.426
254.324
253.114
251.798
250.381
248.864
247.244
245.533
243.734
241.847
239.89
237.874
235.824
233.764
231.735
229.789
228.102
0.202516
0.122189
0.102939
0.0982226
0.0990711
0.102874
0.108639
0.115936
0.124579
0.134506
0.145721
0.15827
0.17222
0.187655
0.204668
0.223362
0.243848
0.266245
0.290682
0.317298
0.346241
0.377673
0.411767
0.448708
0.488699
0.531955
0.578712
0.629222
0.683757
0.74261
0.806094
0.874547
0.948328
1.02782
1.11343
1.2056
1.30479
1.41149
1.52621
1.64952
1.78201
1.92429
2.07702
2.24092
2.41671
2.6052
2.80722
3.02365
3.25542
3.50355
3.76906
4.05308
4.35676
4.68134
5.02813
5.39847
5.7938
6.21561
6.66548
7.14502
7.65595
8.20003
8.7791
9.39504
10.0498
10.7455
11.4842
12.268
13.0993
13.9803
14.9135
15.9015
16.947
18.0527
19.2217
20.4571
21.7622
23.1402
24.5947
26.1291
27.747
29.4517
31.2467
33.1354
35.1212
37.2072
39.3967
41.6926
44.0977
46.6147
49.246
51.9937
54.8596
57.8454
60.952
64.1803
67.5306
71.003
74.597
78.3118
82.1462
86.0985
90.1669
94.3491
98.6425
103.044
107.551
112.161
116.869
121.671
126.565
131.545
136.607
141.745
146.952
152.221
157.542
162.904
168.295
173.699
179.102
184.48
189.794
195.034
200.184
205.234
210.172
214.988
219.673
224.217
228.612
232.85
236.925
240.829
244.557
248.101
251.458
254.624
257.596
260.37
262.946
265.321
267.494
269.465
271.235
272.804
274.172
275.342
276.315
277.095
277.684
278.087
278.307
278.348
278.216
277.915
277.451
276.827
276.051
275.127
274.061
272.859
271.528
270.074
268.501
266.812
265.015
263.12
261.128
259.04
256.868
254.618
252.294
249.913
247.486
245.035
242.577
240.143
237.762
235.573
0.24034
0.143075
0.119061
0.112393
0.112473
0.116093
0.121992
0.129597
0.138643
0.149015
0.160685
0.173676
0.188041
0.203855
0.22121
0.24021
0.26097
0.283613
0.308275
0.335099
0.364236
0.395848
0.430106
0.467194
0.507309
0.550664
0.597489
0.648032
0.702562
0.761368
0.824762
0.893076
0.96667
1.04592
1.13125
1.22307
1.32187
1.42812
1.54235
1.66512
1.79702
1.93867
2.09075
2.25396
2.42905
2.61683
2.81814
3.03387
3.26499
3.51251
3.77749
4.06108
4.36448
4.68896
5.03585
5.40659
5.80266
6.22563
6.67716
7.15899
7.67295
8.22094
8.80497
9.42715
10.0897
10.7948
11.5449
12.3426
13.1905
14.0913
15.048
16.0635
17.1412
18.2842
19.4962
20.7807
22.1416
23.5828
25.1082
26.7218
28.4277
30.2299
32.1326
34.1396
36.2549
38.4823
40.8256
43.2884
45.8739
48.5853
51.4256
54.3971
57.5021
60.7424
64.1193
67.6338
71.2862
75.0765
79.0041
83.0681
87.2671
91.5991
96.062
100.653
105.369
110.208
115.165
120.237
125.419
130.709
136.102
141.593
147.176
152.847
158.597
164.419
170.302
176.232
182.195
188.173
194.148
200.067
205.911
211.665
217.315
222.848
228.251
233.514
238.625
243.575
248.354
252.954
257.366
261.582
265.594
269.396
272.983
276.35
279.493
282.409
285.096
287.552
289.776
291.768
293.526
295.053
296.347
297.411
298.248
298.86
299.252
299.427
299.39
299.146
298.701
298.061
297.232
296.22
295.032
293.675
292.156
290.482
288.666
286.714
284.631
282.426
280.106
277.682
275.161
272.547
269.853
267.088
264.261
261.387
258.479
255.556
252.629
249.722
246.847
244.123
0.27503
0.161713
0.133235
0.12491
0.124321
0.127737
0.133676
0.141453
0.150733
0.16136
0.173278
0.186491
0.201043
0.217004
0.234467
0.253538
0.274337
0.296993
0.321646
0.348439
0.377522
0.409053
0.443197
0.480131
0.520044
0.563141
0.609645
0.659796
0.713856
0.772108
0.834856
0.902429
0.975179
1.05348
1.13774
1.22839
1.32588
1.43071
1.5434
1.66451
1.79462
1.93436
2.08441
2.24548
2.41832
2.60375
2.80263
3.01586
3.24443
3.48938
3.7518
4.03287
4.33384
4.65604
5.00087
5.36983
5.7645
6.18656
6.6378
7.1201
7.63546
8.18598
8.77389
9.40154
10.0714
10.7861
11.5484
12.3613
13.2276
14.1509
15.1343
16.1815
17.2963
18.4826
19.7446
21.0864
22.5125
24.0275
25.6359
27.3425
29.1519
31.0689
33.0982
35.2444
37.5122
39.906
42.4303
45.089
47.8862
50.8254
53.9101
57.143
60.5267
64.0632
67.754
71.6001
75.6016
79.7585
84.0697
88.534
93.1496
97.9143
102.825
107.879
113.073
118.402
123.864
129.452
135.164
140.995
146.939
152.992
159.148
165.402
171.745
178.169
184.661
191.206
197.786
204.381
210.948
217.435
223.83
230.118
236.284
242.313
248.193
253.912
259.457
264.818
269.985
274.947
279.696
284.223
288.518
292.573
296.383
299.944
303.25
306.299
309.088
311.614
313.877
315.876
317.611
319.083
320.29
321.235
321.921
322.352
322.531
322.464
322.155
321.61
320.834
319.837
318.624
317.204
315.583
313.771
311.776
309.607
307.276
304.793
302.166
299.405
296.52
293.524
290.427
287.238
283.971
280.639
277.253
273.83
270.383
266.928
263.476
260.043
256.629
253.343
0.304719
0.17758
0.145493
0.135769
0.13456
0.137721
0.143595
0.151401
0.16075
0.17145
0.183422
0.196658
0.211194
0.2271
0.244469
0.263414
0.284058
0.306536
0.330987
0.357551
0.386373
0.4176
0.451388
0.487902
0.52732
0.569838
0.615667
0.665038
0.718205
0.77544
0.837042
0.903328
0.974645
1.05136
1.13387
1.22261
1.31802
1.42059
1.53084
1.64932
1.77663
1.9134
2.06029
2.21803
2.38738
2.56917
2.76427
2.97362
3.19823
3.43916
3.69756
3.97467
4.2718
4.59034
4.93181
5.29779
5.69002
6.11031
6.56061
7.04302
7.55974
8.11314
8.70575
9.34024
10.0194
10.7464
11.5243
12.3565
13.2466
14.1984
15.216
16.3035
17.4653
18.7062
20.0309
21.4444
22.9521
24.559
26.2707
28.0927
30.0302
32.0889
34.2741
36.5912
39.0456
41.6423
44.3864
47.2825
50.335
53.548
56.9252
60.4697
64.1843
68.0711
72.1315
76.3665
80.7759
85.3588
90.1138
95.0391
100.132
105.39
110.81
116.387
122.117
127.996
134.018
140.18
146.475
152.898
159.444
166.108
172.883
179.763
186.741
193.808
200.948
208.145
215.374
222.605
229.757
236.814
243.759
250.576
257.25
263.766
270.11
276.269
282.231
287.985
293.518
298.82
303.882
308.696
313.245
317.525
321.528
325.251
328.689
331.838
334.696
337.26
339.528
341.501
343.179
344.564
345.65
346.443
346.946
347.164
347.1
346.76
346.15
345.275
344.142
342.759
341.135
339.278
337.197
334.901
332.4
329.705
326.829
323.783
320.578
317.226
313.741
310.137
306.426
302.623
298.743
294.801
290.814
286.797
282.767
278.737
274.717
270.72
266.736
262.87
0.330718
0.19145
0.156119
0.145099
0.143258
0.146089
0.15178
0.159474
0.168733
0.179336
0.191186
0.204266
0.218607
0.234282
0.251387
0.27004
0.290371
0.312516
0.336608
0.362782
0.391169
0.421904
0.455128
0.490993
0.529663
0.571323
0.616171
0.66443
0.71634
0.772166
0.832196
0.896741
0.966137
1.04075
1.12096
1.2072
1.29991
1.39957
1.50671
1.62187
1.74565
1.87868
2.02164
2.17527
2.34034
2.5177
2.70825
2.91297
3.13291
3.36918
3.62302
3.89572
4.1887
4.50347
4.84168
5.20508
5.59556
6.01516
6.46607
6.95063
7.47139
8.03104
8.63249
9.27886
9.97346
10.7198
11.5217
12.3832
13.3084
14.3018
15.3682
16.5126
17.7402
19.0565
20.4673
21.9784
23.596
25.3263
27.1756
29.1503
31.2566
33.5007
35.8886
38.4264
41.1202
43.9757
46.9982
50.193
53.5647
57.1175
60.8554
64.7816
68.8986
73.2086
77.7128
82.4117
87.3047
92.3893
97.6628
103.123
108.766
114.589
120.586
126.753
133.085
139.575
146.219
153.01
159.942
167.009
174.204
181.521
188.954
196.496
204.14
211.876
219.691
227.561
235.452
243.27
250.987
258.586
266.051
273.364
280.509
287.472
294.238
300.794
307.126
313.224
319.074
324.664
329.986
335.036
339.785
344.231
348.371
352.199
355.711
358.903
361.772
364.316
366.532
368.422
369.986
371.224
372.136
372.725
372.995
372.951
372.596
371.937
370.979
369.729
368.195
366.385
364.308
361.975
359.393
356.575
353.531
350.274
346.817
343.173
339.356
335.38
331.262
327.016
322.66
318.21
313.686
309.105
304.485
299.845
295.201
290.568
285.954
281.37
276.799
272.343
0.353624
0.203673
0.165333
0.153069
0.150563
0.152985
0.158386
0.16584
0.174868
0.185224
0.1968
0.20957
0.223566
0.238863
0.255564
0.273796
0.293691
0.315383
0.338998
0.364656
0.392474
0.422567
0.455063
0.490096
0.52782
0.568404
0.612037
0.658929
0.70931
0.763438
0.82159
0.884073
0.951215
1.02338
1.10094
1.18432
1.27397
1.37038
1.47405
1.58556
1.7055
1.83452
1.97333
2.12267
2.28337
2.4563
2.64242
2.84277
3.05846
3.29072
3.54087
3.81034
4.10072
4.41368
4.75107
5.11489
5.50729
5.93063
6.38743
6.88042
7.41258
7.98711
8.60746
9.27734
10.0007
10.7819
11.6254
12.536
13.5188
14.5791
15.7226
16.9553
18.2834
19.7136
21.2525
22.9073
24.685
26.5932
28.6391
30.8302
33.1735
35.6753
38.3422
41.181
44.198
47.3993
50.7906
54.377
58.163
62.1528
66.3497
70.7566
75.3757
80.2082
85.2549
90.5162
95.9912
101.673
107.557
113.64
119.919
126.388
133.04
139.87
146.871
154.037
161.36
168.835
176.453
184.207
192.088
200.091
208.207
216.429
224.751
233.162
241.656
250.19
258.651
266.999
275.22
283.296
291.21
298.946
306.489
313.821
320.93
327.8
334.421
340.78
346.863
352.657
358.151
363.336
368.196
372.726
376.918
380.767
384.269
387.421
390.219
392.661
394.745
396.473
397.844
398.86
399.522
399.834
399.798
399.42
398.706
397.66
396.289
394.601
392.605
390.309
387.723
384.858
381.724
378.333
374.698
370.832
366.75
362.467
357.999
353.363
348.577
343.658
338.628
333.505
328.311
323.067
317.794
312.51
307.235
301.984
296.764
291.587
286.423
281.382
0.374258
0.214607
0.17339
0.159905
0.156709
0.158662
0.163695
0.170815
0.179509
0.189511
0.200701
0.213049
0.226588
0.2414
0.2576
0.275321
0.294701
0.315866
0.33893
0.363994
0.391155
0.420514
0.452179
0.486273
0.522935
0.562323
0.604615
0.650012
0.698737
0.75104
0.807197
0.86751
0.93231
1.00195
1.07683
1.15736
1.24401
1.33726
1.43767
1.54579
1.66228
1.78781
1.92313
2.06903
2.22641
2.39623
2.57952
2.77744
2.99124
3.22231
3.47215
3.74242
4.03494
4.35169
4.69486
5.06683
5.4702
5.90779
6.38267
6.89817
7.45791
8.06584
8.72624
9.44374
10.2233
11.0703
11.9904
12.9897
14.0742
15.2505
16.5253
17.9059
19.4001
21.0154
22.7602
24.6425
26.6708
28.8536
31.1996
33.7173
36.4149
39.297
42.3698
45.6403
49.1151
52.7999
56.6998
60.819
65.1613
69.7294
74.5259
79.5522
84.8089
90.2961
96.013
101.96
108.141
114.534
121.135
127.941
134.948
142.147
149.532
157.095
164.827
172.721
180.771
188.968
197.304
205.769
214.353
223.047
231.843
240.734
249.71
258.759
267.863
276.893
285.799
294.565
303.173
311.608
319.853
327.892
335.708
343.287
350.613
357.673
364.458
370.957
377.151
383.027
388.572
393.776
398.629
403.122
407.249
411.004
414.382
417.38
419.995
422.225
424.07
425.53
426.605
427.298
427.611
427.548
427.111
426.308
425.143
423.623
421.755
419.547
417.01
414.152
410.983
407.516
403.762
399.734
395.447
390.916
386.156
381.185
376.021
370.682
365.19
359.566
353.831
348.009
342.124
336.198
330.255
324.318
318.404
312.53
306.704
300.937
295.186
289.566
0.393887
0.224698
0.180612
0.165921
0.162035
0.163512
0.168156
0.174917
0.183245
0.192856
0.203618
0.215495
0.228528
0.242808
0.258467
0.275652
0.294502
0.315132
0.337637
0.3621
0.388599
0.417221
0.448061
0.481231
0.516859
0.555094
0.596108
0.640097
0.687283
0.737918
0.792283
0.850688
0.913475
0.981018
1.05372
1.13204
1.21645
1.30749
1.40573
1.51183
1.62646
1.7504
1.88447
2.02961
2.18682
2.35722
2.54204
2.74264
2.96053
3.19739
3.45507
3.73562
4.0413
4.37463
4.7384
5.1357
5.56991
6.04475
6.5642
7.13251
7.75444
8.43518
9.18039
9.99619
10.8892
11.8664
12.9355
14.1045
15.3816
16.7734
18.2885
19.936
21.7251
23.6651
25.765
28.0342
30.4818
33.1171
35.9491
38.9877
42.2463
45.718
49.4075
53.3229
57.4696
61.8517
66.472
71.3325
76.4342
81.778
87.3638
93.1909
99.2574
105.561
112.097
118.862
125.853
133.06
140.474
148.092
155.903
163.899
172.07
180.406
188.899
197.539
206.321
215.241
224.286
233.441
242.695
252.036
261.452
270.941
280.48
290.045
299.502
308.824
317.991
326.987
335.795
344.401
352.788
360.942
368.847
376.486
383.846
390.914
397.676
404.121
410.234
416.001
421.412
426.457
431.125
435.408
439.3
442.794
445.887
448.575
450.856
452.727
454.189
455.243
455.889
456.13
455.969
455.411
454.458
453.118
451.396
449.3
446.837
444.018
440.851
437.348
433.519
429.376
424.933
420.205
415.207
409.956
404.469
398.764
392.863
386.786
380.556
374.197
367.733
361.189
354.592
347.967
341.339
334.731
328.164
321.655
315.211
308.846
302.507
296.313
0.413776
0.234454
0.187418
0.171563
0.16706
0.168142
0.172488
0.178979
0.18703
0.19633
0.206732
0.218196
0.230765
0.244557
0.259732
0.276458
0.294869
0.315066
0.337124
0.361109
0.38709
0.415144
0.445362
0.47785
0.512735
0.550165
0.590314
0.633385
0.679611
0.729261
0.78264
0.840091
0.901991
0.96876
1.04086
1.11879
1.20311
1.29445
1.39348
1.50097
1.61777
1.7448
1.88311
2.03388
2.19839
2.37811
2.57463
2.78977
3.02559
3.28439
3.56873
3.88144
4.22569
4.60507
5.02363
5.48592
5.99697
6.56241
7.18825
7.88003
8.64475
9.49005
10.4241
11.4556
12.5938
13.8486
15.2306
16.7519
18.4262
20.2526
22.2445
24.4127
26.7675
29.3183
32.0741
35.0434
38.2341
41.6535
45.3082
49.204
53.3458
57.7329
62.3661
67.2478
72.3786
77.7581
83.3847
89.2558
95.3686
101.72
108.308
115.129
122.177
129.447
136.932
144.624
152.518
160.605
168.884
177.346
185.979
194.771
203.711
212.788
221.991
231.313
240.751
250.314
259.976
269.714
279.514
289.363
299.228
309.116
318.91
328.534
337.99
347.272
356.368
365.264
373.949
382.408
390.626
398.59
406.284
413.694
420.805
427.603
434.075
440.21
445.992
451.411
456.455
461.114
465.378
469.24
472.693
475.73
478.348
480.544
482.314
483.658
484.575
485.066
485.134
484.78
484.009
482.824
481.23
479.234
476.843
474.063
470.905
467.377
463.491
459.257
454.687
449.795
444.595
439.103
433.336
427.311
421.048
414.567
407.889
401.039
394.041
386.921
379.704
372.418
365.091
357.749
350.421
343.13
335.898
328.745
321.677
314.709
307.785
301.022
0.43646
0.244321
0.194241
0.177405
0.172528