/*--------------------------------*- C++ -*----------------------------------*\
| =========                 |                                                 |
| \\      /  F ield         | OpenFOAM: The Open Source CFD Toolbox           |
|  \\    /   O peration     | Version:  1.4.2                                 |
|   \\  /    A nd           | Web:      http://www.openfoam.org               |
|    \\/     M anipulation  |                                                 |
\*---------------------------------------------------------------------------*/
FoamFile
{
    version     2.0;
    format      ascii;
    class       volScalarField;
    object      k;
    location    "900";
}
// * * * * * * * * * * * * * * * * * * * * * * * * * * * * * * * * * * * * * //

dimensions      [0 2 -2 0 0 0 0];

internalField   nonuniform List<scalar> 
12225
(
0.315115
0.271063
0.237885
0.212505
0.1929
0.17769
0.165905
0.156845
0.14999
0.144947
0.141411
0.139138
0.137933
0.137632
0.138097
0.139208
0.140862
0.143166
0.365357
0.357609
0.353827
0.353686
0.356737
0.362618
0.371004
0.3816
0.394137
0.408365
0.424048
0.440955
0.458864
0.477557
0.496816
0.516421
0.536066
0.556346
0.370187
0.364636
0.360183
0.356898
0.354768
0.35374
0.353744
0.354696
0.356512
0.359109
0.362405
0.366319
0.37077
0.37567
0.380923
0.386403
0.391923
0.397337
0.371735
0.367478
0.363488
0.359996
0.357015
0.354545
0.352574
0.351071
0.350002
0.349327
0.349007
0.349003
0.349274
0.34978
0.350476
0.351308
0.352215
0.353158
0.372438
0.36905
0.36559
0.362328
0.359334
0.35663
0.354215
0.352079
0.350207
0.348579
0.347176
0.345976
0.344956
0.344096
0.343369
0.342753
0.342221
0.341765
0.37275
0.369943
0.366992
0.364059
0.36125
0.35861
0.356154
0.353885
0.351797
0.349883
0.34813
0.346528
0.345062
0.343721
0.342491
0.341359
0.340313
0.339358
0.372878
0.37041
0.367854
0.365269
0.362722
0.360258
0.357903
0.355675
0.353577
0.351609
0.349766
0.348042
0.346429
0.34492
0.343506
0.34218
0.340936
0.339788
0.372918
0.370599
0.368258
0.365906
0.363576
0.361295
0.359086
0.356964
0.354939
0.353014
0.35119
0.349465
0.347835
0.346295
0.34484
0.343464
0.342164
0.340958
0.372932
0.370688
0.368473
0.366277
0.364109
0.361983
0.359911
0.357906
0.355975
0.354124
0.352356
0.35067
0.349065
0.34754
0.34609
0.344711
0.343402
0.342182
0.372937
0.37073
0.368595
0.36651
0.364471
0.362481
0.360543
0.358662
0.356843
0.355091
0.353406
0.351791
0.350245
0.348767
0.347355
0.346006
0.344721
0.343517
0.372937
0.370746
0.368652
0.366634
0.364684
0.362795
0.360966
0.359196
0.357485
0.355834
0.354244
0.352715
0.351246
0.349836
0.348484
0.347189
0.34595
0.344788
0.372936
0.370748
0.36867
0.366685
0.364785
0.36296
0.361206
0.359517
0.357891
0.356327
0.354821
0.353373
0.351981
0.350644
0.34936
0.348128
0.346948
0.345838
0.372936
0.370745
0.36867
0.366698
0.364819
0.363026
0.361312
0.359672
0.358101
0.356595
0.35515
0.353764
0.352435
0.351159
0.349934
0.348759
0.347635
0.346578
0.372937
0.370743
0.368665
0.366694
0.36482
0.363038
0.361341
0.359723
0.358178
0.356703
0.355293
0.353944
0.352654
0.351418
0.350234
0.3491
0.348017
0.347001
0.372939
0.370742
0.368662
0.366687
0.364813
0.363031
0.361337
0.359724
0.358188
0.356724
0.355328
0.353995
0.352722
0.351505
0.350342
0.349231
0.348171
0.347179
0.372943
0.370744
0.368661
0.366683
0.364805
0.363021
0.361325
0.359711
0.358175
0.356712
0.355317
0.353987
0.352719
0.351508
0.350351
0.349247
0.348197
0.347214
0.372948
0.370749
0.368663
0.366683
0.364802
0.363015
0.361315
0.359699
0.358159
0.356694
0.355297
0.353965
0.352695
0.351483
0.350326
0.349222
0.348172
0.347191
0.372951
0.370752
0.368664
0.366683
0.3648
0.363011
0.361309
0.35969
0.358148
0.356679
0.355279
0.353944
0.352671
0.351455
0.350295
0.349188
0.348135
0.347151
0.372947
0.370748
0.368661
0.366679
0.364796
0.363006
0.361303
0.359681
0.358136
0.356663
0.355259
0.353918
0.352638
0.351416
0.350249
0.349134
0.348072
0.347079
0.372942
0.370743
0.368656
0.366675
0.36479
0.362997
0.361289
0.359661
0.358108
0.356624
0.355207
0.353852
0.352555
0.351315
0.350128
0.348992
0.347909
0.346894
0.372938
0.370738
0.368651
0.366666
0.364774
0.362969
0.361244
0.359594
0.358014
0.3565
0.355048
0.353654
0.352318
0.351034
0.349803
0.348621
0.347492
0.346432
0.372934
0.370732
0.368636
0.366632
0.364712
0.362869
0.361095
0.359387
0.357741
0.356155
0.354627
0.353155
0.351738
0.350374
0.349061
0.347801
0.346594
0.345459
0.372927
0.37071
0.36858
0.36652
0.364521
0.36258
0.360694
0.358864
0.357089
0.355371
0.353712
0.35211
0.350567
0.349082
0.347655
0.346286
0.344977
0.343749
0.37291
0.370639
0.368408
0.366204
0.36403
0.361894
0.359802
0.357765
0.355788
0.353878
0.352037
0.350268
0.348572
0.346948
0.345396
0.343914
0.342505
0.341187
0.372856
0.370429
0.367957
0.365456
0.362964
0.36051
0.358116
0.3558
0.353574
0.351443
0.34941
0.347475
0.345636
0.343891
0.342235
0.340667
0.339186
0.337808
0.372693
0.369884
0.366925
0.36392
0.360959
0.358089
0.355338
0.35272
0.350244
0.347909
0.345714
0.343653
0.34172
0.33991
0.338216
0.336631
0.335151
0.333789
0.37223
0.368599
0.364817
0.361096
0.357537
0.354185
0.351059
0.348165
0.345497
0.343047
0.340806
0.33876
0.336897
0.335202
0.333663
0.332268
0.331005
0.329876
0.370946
0.365685
0.36055
0.355801
0.35149
0.347644
0.344266
0.341333
0.338816
0.336679
0.334887
0.333407
0.332206
0.331256
0.330529
0.33
0.329646
0.329455
0.366354
0.35712
0.349251
0.3429
0.337988
0.334392
0.331962
0.330545
0.330001
0.330208
0.331059
0.332461
0.334334
0.33661
0.339225
0.342127
0.345262
0.348624
0.329178
0.293648
0.265348
0.242403
0.223549
0.20789
0.194768
0.183687
0.174271
0.166227
0.159326
0.153385
0.148254
0.143816
0.139969
0.136633
0.133739
0.131229
0.000342932
0.00040657
0.00050241
0.000607725
0.000709613
0.000803327
0.000888067
0.00096466
0.00103465
0.00110026
0.00116453
0.0012312
0.00130387
0.00138631
0.0014811
0.00158789
0.00170787
0.00184293
0.00199486
0.00216352
0.00234875
0.00254976
0.00276663
0.00300122
0.00325808
0.00354276
0.00385919
0.00419881
0.00456849
0.0049714
0.00540946
0.00588412
0.00639652
0.00694767
0.00753851
0.00816998
0.00884308
0.00955889
0.0103186
0.0111234
0.0119749
0.0128744
0.0138236
0.0148244
0.0158785
0.016988
0.018155
0.0193817
0.0206707
0.0220244
0.0234457
0.0249374
0.0265029
0.0281455
0.0298691
0.031678
0.0335771
0.0355718
0.0376685
0.0398747
0.0421992
0.0446524
0.0472473
0.0499994
0.0529279
0.0560564
0.0594145
0.0630394
0.066978
0.0712912
0.0760593
0.081392
0.0874453
0.0944499
0.102758
0.112916
0.125751
0.142463
0.149239
0.155911
0.162777
0.16985
0.177133
0.184626
0.19233
0.200245
0.208372
0.216708
0.225253
0.234005
0.242962
0.25212
0.261476
0.271027
0.280767
0.290694
0.3008
0.311081
0.321531
0.332143
0.34291
0.353825
0.36488
0.376066
0.387374
0.398794
0.410315
0.421924
0.433609
0.445355
0.457145
0.468963
0.480789
0.492603
0.504382
0.516106
0.527749
0.53929
0.550706
0.561977
0.573086
0.58402
0.594779
0.60538
0.615873
0.626129
0.636112
0.645815
0.655241
0.664391
0.673269
0.681878
0.690223
0.69831
0.706144
0.713733
0.721084
0.728206
0.735107
0.741796
0.748282
0.754573
0.760678
0.766602
0.772354
0.777938
0.783359
0.788619
0.793721
0.798665
0.803449
0.808071
0.812525
0.816802
0.82089
0.824777
0.828447
0.831879
0.835053
0.837945
0.840524
0.842761
0.844618
0.846056
0.847034
0.847507
0.847422
0.846725
0.845358
0.84326
0.840361
0.836602
0.831906
0.826267
0.819669
0.812446
0.805175
0.797001
0.787753
0.77344
0.000428733
0.000634234
0.000879351
0.0011106
0.00131726
0.00150073
0.00166591
0.00181907
0.00196711
0.00211698
0.00227547
0.0024488
0.00264287
0.00285761
0.00309328
0.00335335
0.00364175
0.00396306
0.0043216
0.00471922
0.00516464
0.00565097
0.0061836
0.00676626
0.00740031
0.00808687
0.0088271
0.00962205
0.0104733
0.0113826
0.0123514
0.0133815
0.0144744
0.0156317
0.0168553
0.018147
0.0195088
0.0209429
0.0224518
0.024038
0.0257044
0.027454
0.0292901
0.031216
0.0332354
0.0353521
0.0375703
0.0398942
0.0423283
0.0448773
0.0475463
0.0503406
0.0532657
0.0563276
0.0595327
0.0628879
0.0664006
0.0700789
0.0739317
0.0779688
0.082201
0.0866406
0.091301
0.0961977
0.101348
0.106771
0.112487
0.118521
0.124896
0.131638
0.138771
0.146315
0.154285
0.162693
0.171541
0.180828
0.190516
0.200398
0.209871
0.219559
0.229561
0.239895
0.25057
0.261591
0.272961
0.284684
0.296761
0.309195
0.321987
0.335136
0.348643
0.362507
0.376724
0.391294
0.406212
0.421474
0.437076
0.453013
0.469277
0.485863
0.502763
0.519969
0.537472
0.555263
0.573331
0.591664
0.610251
0.629075
0.648123
0.667375
0.686813
0.706414
0.726155
0.746007
0.765941
0.785925
0.805925
0.825906
0.845832
0.865667
0.885379
0.904939
0.924329
0.943552
0.96251
0.981152
0.999433
1.01735
1.03491
1.0521
1.06892
1.08539
1.1015
1.11726
1.13267
1.14775
1.1625
1.17694
1.19107
1.20492
1.21848
1.23179
1.24484
1.25765
1.27024
1.2826
1.29476
1.30671
1.31845
1.33
1.34135
1.3525
1.36344
1.37416
1.38465
1.39488
1.40483
1.41448
1.42379
1.43274
1.44126
1.44932
1.45685
1.4638
1.4701
1.47567
1.48042
1.48426
1.48709
1.48878
1.48922
1.48825
1.48573
1.48155
1.47565
1.46849
1.46068
1.45151
1.43992
1.42209
0.000645567
0.00100895
0.00138359
0.0017137
0.00200768
0.0022767
0.00253053
0.00277835
0.00302958
0.00329257
0.00357455
0.00388255
0.00421413
0.00457349
0.00496409
0.00539236
0.00585994
0.00636762
0.00691928
0.00751759
0.00816517
0.00886349
0.00961471
0.0104212
0.0112854
0.0122101
0.0131978
0.0142513
0.0153729
0.0165653
0.017831
0.0191724
0.0205921
0.0220927
0.0236769
0.0253475
0.0271075
0.0289601
0.0309088
0.0329572
0.0351092
0.037369
0.0397409
0.0422296
0.04484
0.0475773
0.050447
0.0534548
0.0566068
0.0599092
0.0633687
0.0669923
0.0707875
0.074762
0.078924
0.0832824
0.0878464
0.092626
0.0976318
0.102875
0.108369
0.114126
0.12016
0.126487
0.133124
0.140086
0.147392
0.15506
0.163107
0.171549
0.180396
0.189655
0.199325
0.209396
0.219853
0.23068
0.241866
0.253374
0.265172
0.277354
0.289951
0.302975
0.316436
0.33034
0.344693
0.359499
0.374762
0.390484
0.406668
0.423315
0.440424
0.457995
0.476025
0.494512
0.513451
0.532838
0.552666
0.572928
0.593617
0.614722
0.636235
0.658144
0.680438
0.703103
0.726127
0.749493
0.773186
0.797187
0.821478
0.846036
0.870838
0.895858
0.921066
0.946429
0.971913
0.997479
1.02308
1.04869
1.07424
1.0997
1.12502
1.15016
1.1751
1.19982
1.22419
1.24814
1.27162
1.29465
1.31719
1.33927
1.36086
1.38197
1.4026
1.42276
1.44245
1.46168
1.48047
1.49883
1.51677
1.5343
1.55144
1.56821
1.58462
1.6007
1.61644
1.63187
1.64701
1.66184
1.6764
1.69067
1.70467
1.71839
1.73183
1.74498
1.75783
1.77036
1.78255
1.79437
1.80579
1.81677
1.82726
1.83722
1.84659
1.85529
1.86325
1.8704
1.87663
1.88185
1.88592
1.88873
1.89012
1.8899
1.88791
1.88399
1.87814
1.87078
1.86228
1.85261
1.84116
1.82607
0.000912912
0.0014619
0.00196783
0.00240786
0.00281475
0.00320086
0.00357516
0.00394751
0.00432708
0.00472049
0.00513295
0.00556236
0.00601472
0.00649689
0.0070139
0.00756989
0.00816805
0.008811
0.00950122
0.0102411
0.0110332
0.0118802
0.0127851
0.0137509
0.0147812
0.0158794
0.017049
0.0182933
0.0196158
0.0210197
0.0225082
0.0240848
0.0257527
0.0275155
0.0293767
0.0313401
0.0334097
0.0355897
0.0378845
0.0402989
0.0428377
0.0455063
0.0483102
0.0512553
0.0543477
0.057594
0.0610008
0.0645754
0.0683252
0.0722582
0.0763826
0.080707
0.0852405
0.0899926
0.0949733
0.100193
0.105663
0.111395
0.117401
0.123694
0.130287
0.137194
0.144432
0.152014
0.159956
0.168275
0.176986
0.186105
0.195645
0.205618
0.216034
0.226899
0.238212
0.249973
0.262176
0.274821
0.287912
0.301456
0.315463
0.329961
0.344968
0.360494
0.37655
0.393144
0.410283
0.427973
0.44622
0.465026
0.484395
0.504329
0.524827
0.545889
0.567511
0.589691
0.612422
0.635699
0.659512
0.683853
0.70871
0.734072
0.759925
0.786254
0.813044
0.840278
0.867938
0.896005
0.924458
0.953275
0.982433
1.01191
1.04167
1.07168
1.10192
1.13235
1.16292
1.1936
1.22432
1.25505
1.28572
1.31629
1.34668
1.37686
1.40679
1.4364
1.46555
1.49416
1.5222
1.54964
1.57648
1.6027
1.6283
1.65328
1.67762
1.70135
1.72445
1.74695
1.76884
1.79014
1.81087
1.83104
1.85067
1.86977
1.88837
1.90648
1.92412
1.9413
1.95805
1.97437
1.99028
2.00578
2.02088
2.03559
2.04991
2.06384
2.07736
2.09046
2.10312
2.11532
2.12704
2.13824
2.14888
2.15891
2.16827
2.1769
2.18473
2.19168
2.19764
2.20251
2.20616
2.20844
2.20918
2.20816
2.20521
2.20023
2.19335
2.18495
2.17538
2.16483
2.15304
2.13942
0.0012195
0.00197724
0.00263648
0.00322211
0.0037753
0.00430229
0.00481143
0.00531036
0.0058082
0.00630689
0.00681071
0.00733052
0.00787476
0.00845013
0.00906185
0.00971408
0.0104104
0.0111538
0.0119473
0.0127937
0.0136962
0.0146583
0.0156835
0.0167755
0.0179384
0.0191759
0.0204922
0.021891
0.0233763
0.024952
0.0266221
0.0283906
0.0302617
0.0322397
0.0343291
0.0365347
0.0388612
0.041314
0.0438984
0.0466201
0.0494851
0.0524997
0.0556706
0.0590046
0.0625091
0.0661918
0.0700605
0.0741238
0.0783904
0.0828695
0.0875708
0.0925044
0.0976806
0.103111
0.108806
0.114778
0.12104
0.127605
0.134486
0.141698
0.149255
0.157171
0.165464
0.174147
0.183238
0.192752
0.202704
0.21311
0.223983
0.235335
0.247178
0.25952
0.272367
0.285725
0.2996
0.314001
0.328938
0.344426
0.360481
0.377119
0.394357
0.412205
0.430677
0.449781
0.469527
0.489924
0.510977
0.532693
0.555076
0.578127
0.601848
0.626237
0.651293
0.67701
0.703381
0.7304
0.758055
0.786335
0.815226
0.844712
0.874777
0.905402
0.936567
0.968251
1.00043
1.03308
1.06619
1.09971
1.13363
1.16791
1.20252
1.23743
1.27261
1.308
1.34357
1.37926
1.41502
1.45078
1.48649
1.52208
1.55747
1.5926
1.62744
1.66181
1.69561
1.72874
1.76116
1.79285
1.82379
1.85395
1.88332
1.91191
1.93969
1.96667
1.99286
2.01825
2.04285
2.06667
2.08973
2.11204
2.13362
2.15449
2.17466
2.19416
2.213
2.23121
2.2488
2.26579
2.28219
2.29803
2.3133
2.32803
2.34221
2.35586
2.36897
2.38154
2.39355
2.40499
2.41583
2.42607
2.43566
2.44457
2.45274
2.46013
2.46666
2.47226
2.47684
2.48028
2.48245
2.48318
2.48231
2.47962
2.47505
2.4686
2.46047
2.45096
2.44037
2.42899
2.41668
2.40329
0.0015626
0.002549
0.00340254
0.00416727
0.00487666
0.00554
0.00616719
0.0067706
0.00735178
0.00792337
0.00849921
0.00909045
0.00970598
0.0103529
0.0110369
0.0117628
0.0125344
0.0133556
0.0142298
0.0151606
0.0161516
0.0172067
0.0183299
0.0195253
0.020797
0.0221493
0.0235864
0.0251127
0.0267326
0.0284504
0.0302709
0.0321986
0.0342385
0.0363957
0.0386754
0.0410832
0.0436249
0.0463064
0.0491341
0.0521146
0.0552546
0.0585616
0.0620429
0.0657066
0.0695608
0.0736143
0.0778761
0.0823557
0.087063
0.0920085
0.0972029
0.102657
0.108384
0.114395
0.120703
0.127322
0.134265
0.141546
0.14918
0.157183
0.165571
0.174359
0.183564
0.193202
0.203291
0.213847
0.224886
0.236424
0.248477
0.261059
0.274184
0.287864
0.302112
0.316939
0.332359
0.348385
0.365032
0.382318
0.400261
0.418876
0.438181
0.458191
0.478918
0.500376
0.522578
0.545532
0.569249
0.593736
0.618998
0.64504
0.671862
0.699465
0.727846
0.757001
0.786921
0.817598
0.849019
0.88117
0.914035
0.947594
0.981827
1.01671
1.05222
1.08834
1.12502
1.16225
1.2
1.23823
1.27691
1.31601
1.3555
1.39533
1.43547
1.47586
1.51646
1.55722
1.59806
1.63893
1.67973
1.72041
1.76086
1.801
1.8408
1.87999
1.91846
1.95612
1.99293
2.02886
2.06386
2.09792
2.13101
2.16313
2.19425
2.22437
2.25349
2.2816
2.30871
2.33483
2.35996
2.38413
2.40733
2.4296
2.45095
2.4714
2.49097
2.50969
2.52757
2.54464
2.56092
2.57641
2.59115
2.60515
2.61842
2.63098
2.64284
2.65399
2.66444
2.67418
2.68321
2.69153
2.6991
2.7059
2.71191
2.71708
2.72135
2.72466
2.72693
2.72805
2.72788
2.72628
2.72311
2.71829
2.7118
2.70372
2.69423
2.68359
2.67203
2.65984
2.64691
2.63323
0.00193028
0.0031757
0.00424403
0.00518986
0.00604459
0.00682652
0.00755042
0.00822454
0.0088699
0.00950346
0.0101392
0.0107886
0.0114612
0.0121646
0.0129053
0.0136888
0.0145196
0.0154023
0.0163408
0.0173393
0.0184017
0.0195323
0.0207352
0.0220148
0.0233755
0.0248216
0.0263577
0.0279885
0.0297186
0.031553
0.0334967
0.035555
0.0377335
0.0400377
0.0424737
0.0450476
0.047766
0.0506354
0.053663
0.0568562
0.0602224
0.0637699
0.0675068
0.0714419
0.0755845
0.079944
0.0845304
0.0893542
0.0944263
0.0997581
0.105361
0.111249
0.117433
0.123928
0.130747
0.137905
0.145417
0.153298
0.161565
0.170234
0.179322
0.188847
0.198826
0.209276
0.220218
0.231668
0.243644
0.256165
0.269249
0.282913
0.297174
0.312049
0.327556
0.34371
0.36053
0.378035
0.396243
0.415175
0.434851
0.45529
0.476512
0.498533
0.521372
0.545045
0.569566
0.594948
0.621205
0.648344
0.676375
0.705303
0.73513
0.765859
0.797486
0.830007
0.863413
0.897695
0.932838
0.968826
1.00564
1.04325
1.08165
1.12079
1.16066
1.20121
1.24243
1.28426
1.32669
1.36967
1.41317
1.45714
1.50155
1.54636
1.59152
1.63698
1.6827
1.72859
1.77461
1.82066
1.86666
1.91252
1.95813
2.00341
2.04822
2.09229
2.13548
2.17773
2.21897
2.25916
2.29825
2.33622
2.37303
2.40866
2.44309
2.4763
2.50829
2.53904
2.56855
2.59683
2.62388
2.64971
2.67433
2.69775
2.72001
2.74111
2.76107
2.77993
2.7977
2.8144
2.83006
2.84471
2.85835
2.87103
2.88276
2.89357
2.90347
2.91248
2.92061
2.92787
2.93428
2.93984
2.94454
2.94838
2.95136
2.95345
2.95461
2.95478
2.95392
2.95192
2.9487
2.94417
2.93826
2.93098
2.92235
2.91249
2.90151
2.88966
2.87713
2.86418
2.85062
2.8365
0.00229769
0.00382399
0.0051122
0.00622204
0.00720202
0.00807696
0.00887063
0.00960934
0.0103144
0.0110034
0.011691
0.0123893
0.0131086
0.0138577
0.0146437
0.0154728
0.0163506
0.0172819
0.0182714
0.0193236
0.0204429
0.0216337
0.0229004
0.0242474
0.0256792
0.0272003
0.0288155
0.0305296
0.0323476
0.0342747
0.0363165
0.0384784
0.0407666
0.0431872
0.0457465
0.0484514
0.0513089
0.0543261
0.0575109
0.0608711
0.064415
0.0681513
0.072089
0.0762376
0.080607
0.0852074
0.0900497
0.0951452
0.100506
0.106143
0.112071
0.118303
0.124852
0.131733
0.138961
0.146552
0.154522
0.162888
0.171667
0.180877
0.190538
0.200666
0.211283
0.222408
0.23406
0.24626
0.259029
0.272387
0.286356
0.300955
0.316207
0.332131
0.348751
0.366086
0.384161
0.402997
0.422619
0.443049
0.464311
0.48643
0.509426
0.533322
0.55814
0.583898
0.610616
0.63831
0.666994
0.696683
0.727386
0.759111
0.791863
0.825644
0.860453
0.896285
0.933131
0.970979
1.00982
1.04962
1.09037
1.13203
1.17459
1.21801
1.26224
1.30727
1.35304
1.39951
1.44666
1.49443
1.54278
1.59167
1.64106
1.69089
1.74113
1.79172
1.8426
1.8937
1.94495
1.99626
2.04752
2.09864
2.1495
2.2
2.24983
2.29878
2.34672
2.39357
2.43926
2.48373
2.52692
2.5688
2.60933
2.64847
2.68619
2.72246
2.75728
2.79061
2.82246
2.85282
2.88168
2.90906
2.93496
2.95939
2.98236
3.0039
3.02403
3.04276
3.06012
3.07613
3.09082
3.10421
3.11635
3.12725
3.13694
3.14547
3.15286
3.15913
3.16432
3.16845
3.17154
3.17363
3.17474
3.17487
3.17406
3.17228
3.16955
3.16583
3.16111
3.15534
3.14849
3.14055
3.13155
3.12151
3.11049
3.09861
3.08599
3.07284
3.05933
3.04562
3.03143
3.01687
0.00264879
0.0044544
0.00594856
0.00720053
0.00827705
0.0092285
0.0100908
0.0108911
0.0116515
0.0123904
0.0131233
0.0138635
0.014622
0.0154085
0.0162309
0.0170964
0.018011
0.0189804
0.0200097
0.0211037
0.0222672
0.0235047
0.0248207
0.0262197
0.0277062
0.0292848
0.0309603
0.0327377
0.0346222
0.0366192
0.0387343
0.0409736
0.0433432
0.0458497
0.0484998
0.0513008
0.05426
0.0573852
0.0606846
0.0641664
0.0678396
0.0717134
0.0757973
0.0801015
0.0846364
0.0894131
0.0944429
0.0997379
0.105311
0.111174
0.117343
0.12383
0.130651
0.137822
0.145358
0.153277
0.161595
0.170332
0.179506
0.189137
0.199244
0.209849
0.220972
0.232635
0.244862
0.257674
0.271095
0.285149
0.29986
0.315253
0.331354
0.348186
0.365777
0.384153
0.403342
0.42337
0.444265
0.466056
0.488771
0.512437
0.537081
0.562729
0.589407
0.617139
0.645947
0.675851
0.706871
0.739022
0.772317
0.806767
0.842379
0.879156
0.917097
0.956199
0.996451
1.03784
1.08035
1.12396
1.16863
1.21435
1.26108
1.30877
1.3574
1.40691
1.45725
1.50839
1.56028
1.61286
1.66609
1.71992
1.7743
1.82919
1.88452
1.94025
1.99631
2.05263
2.10912
2.1657
2.22225
2.27864
2.33475
2.39042
2.44523
2.49902
2.55166
2.60306
2.65315
2.70185
2.74911
2.79486
2.83905
2.88166
2.92262
2.96192
2.99951
3.03538
3.06951
3.10187
3.13248
3.16132
3.18839
3.21371
3.23728
3.25912
3.27924
3.29766
3.31441
3.3295
3.34297
3.35484
3.36515
3.37393
3.38123
3.38708
3.39153
3.3946
3.39634
3.39681
3.39603
3.39407
3.39096
3.38676
3.38148
3.37519
3.3679
3.35965
3.35048
3.3404
3.32948
3.31774
3.30526
3.29213
3.27842
3.26429
3.24985
3.23527
3.22066
3.20612
3.19129
3.17635
0.0029691
0.00504238
0.00671245
0.00807392
0.00923676
0.0102617
0.0111881
0.0120447
0.0128549
0.013638
0.0144105
0.0151864
0.0159779
0.0167951
0.0176468
0.018541
0.0194842
0.0204828
0.0215422
0.0226677
0.0238642
0.0251362
0.0264884
0.0279252
0.029451
0.0310705
0.0327884
0.0346098
0.0365398
0.038584
0.0407483
0.0430386
0.0454615
0.0480238
0.0507324
0.0535949
0.0566189
0.0598125
0.0631842
0.0667429
0.0704977
0.0744583
0.0786347
0.0830375
0.0876777
0.0925668
0.0977169
0.103141
0.108851
0.114862
0.121189
0.127846
0.134849
0.142215
0.149961
0.158106
0.166667
0.175666
0.185121
0.195055
0.205489
0.216446
0.22795
0.240025
0.252696
0.265989
0.27993
0.294548
0.30987
0.325924
0.342741
0.360351
0.378784
0.398072
0.418248
0.439344
0.461392
0.484426
0.508479
0.533583
0.559771
0.587072
0.615517
0.645135
0.675952
0.707993
0.74128
0.775833
0.811667
0.848795
0.887226
0.926965
0.968012
1.01036
1.05401
1.09893
1.1451
1.19251
1.24112
1.2909
1.3418
1.39378
1.4468
1.5008
1.55573
1.61153
1.66816
1.72555
1.78365
1.8424
1.90176
1.96166
2.02205
2.08288
2.14407
2.20556
2.26724
2.32903
2.39078
2.45238
2.51371
2.5743
2.63392
2.69238
2.74956
2.80538
2.85972
2.91253
2.96371
3.01321
3.06097
3.10693
3.15104
3.19326
3.23354
3.27185
3.30816
3.34245
3.3747
3.40492
3.43308
3.45918
3.48325
3.50527
3.52527
3.54326
3.55926
3.57327
3.58533
3.59548
3.60375
3.61018
3.61482
3.61771
3.6189
3.61843
3.61636
3.61275
3.60768
3.6012
3.5934
3.58434
3.5741
3.56278
3.55045
3.53719
3.52312
3.50832
3.4929
3.47697
3.46067
3.44411
3.42742
3.41076
3.39424
3.378
3.36212
3.34662
3.33109
3.3158
0.00324834
0.00557282
0.00738348
0.00883975
0.0100775
0.0111659
0.0121473
0.0130523
0.0139052
0.014726
0.015532
0.0163379
0.0171563
0.0179982
0.018873
0.0197891
0.0207539
0.0217739
0.0228551
0.024003
0.0252225
0.0265182
0.0278945
0.0293558
0.0309064
0.0325508
0.0342937
0.03614
0.038095
0.0401642
0.0423535
0.0446691
0.0471176
0.0497058
0.0524411
0.0553309
0.0583833
0.0616066
0.0650095
0.068601
0.0723909
0.0763888
0.0806054
0.0850515
0.0897385
0.0946783
0.0998836
0.105367
0.111144
0.117227
0.123633
0.130376
0.137475
0.144947
0.152809
0.161083
0.169787
0.178943
0.188573
0.198701
0.20935
0.220547
0.232316
0.244685
0.257683
0.271339
0.285683
0.300746
0.316562
0.333162
0.350583
0.368859
0.388027
0.408123
0.429185
0.451252
0.474362
0.498554
0.523865
0.550333
0.577997
0.606891
0.63705
0.668507
0.701294
0.735439
0.770968
0.807902
0.846261
0.88606
0.927309
0.970013
1.01417
1.05978
1.10683
1.1553
1.20516
1.25639
1.30895
1.36279
1.41787
1.47415
1.53156
1.59004
1.64954
1.70999
1.77133
1.83348
1.8964
1.96001
2.02426
2.08909
2.15443
2.22024
2.28644
2.35295
2.41968
2.4865
2.55329
2.61992
2.68609
2.75133
2.81544
2.87829
2.93974
2.99969
3.05804
3.11469
3.16956
3.22258
3.27368
3.32279
3.36986
3.41483
3.45762
3.49821
3.53655
3.57262
3.60639
3.63784
3.66696
3.69374
3.71818
3.74028
3.76005
3.77749
3.7926
3.80541
3.81593
3.82421
3.83028
3.83419
3.83599
3.83571
3.83341
3.82916
3.82302
3.81507
3.80541
3.79411
3.78129
3.76706
3.75153
3.73485
3.71714
3.69855
3.67925
3.6594
3.63917
3.61873
3.59827
3.57795
3.55796
3.53843
3.51953
3.50135
3.48395
3.46731
3.451
3.43531
0.00347809
0.00604278
0.00797101
0.00950195
0.0107981
0.011936
0.0129607
0.0139039
0.0147904
0.0156411
0.0164734
0.0173026
0.0181417
0.0190021
0.0198938
0.0208256
0.0218053
0.0228399
0.0239355
0.0250976
0.026331
0.0276402
0.0290294
0.0305025
0.0320639
0.0337178
0.0354687
0.0373216
0.0392814
0.0413538
0.0435446
0.0458601
0.0483069
0.050892
0.0536227
0.0565067
0.0595521
0.0627674
0.0661616
0.0697438
0.0735238
0.0775117
0.0817183
0.0861547
0.0908326
0.0957644
0.100963
0.106442
0.112216
0.1183
0.12471
0.131463
0.138577
0.146071
0.153964
0.162277
0.171032
0.180252
0.189961
0.200186
0.210952
0.222288
0.234223
0.246787
0.260014
0.273935
0.288586
0.304002
0.320222
0.337283
0.355226
0.374091
0.393922
0.414761
0.436652
0.459639
0.483767
0.509081
0.535625
0.563442
0.592573
0.62306
0.654942
0.688256
0.723037
0.759317
0.797124
0.836484
0.877416
0.919936
0.964055
1.00978
1.05711
1.10603
1.15654
1.20861
1.2622
1.31729
1.37382
1.43175
1.49103
1.55159
1.61337
1.67632
1.74034
1.80538
1.87135
1.93818
2.0058
2.07414
2.14314
2.21272
2.28284
2.35341
2.42439
2.49568
2.56718
2.63875
2.71026
2.78153
2.85197
2.92136
2.98952
3.0563
3.12158
3.18525
3.24718
3.30729
3.36547
3.42164
3.47573
3.52767
3.57739
3.62482
3.66986
3.71246
3.75259
3.79021
3.82528
3.85777
3.88766
3.91494
3.93958
3.96159
3.98097
3.99773
4.01182
4.02327
4.03212
4.03841
4.04215
4.04341
4.04221
4.03863
4.03271
4.02454
4.01419
4.00175
3.98734
3.97108
3.95309
3.93352
3.91254
3.89032
3.86706
3.84295
3.81823
3.79311
3.76782
3.7426
3.71769
3.69331
3.66966
3.64694
3.62531
3.60489
3.58569
3.5677
3.55046
3.5343
0.00367321
0.00645941
0.00848129
0.010066
0.0114025
0.0125741
0.013628
0.0145969
0.0155063
0.0163769
0.0172268
0.0180713
0.0189237
0.0197956
0.0206975
0.0216385
0.0226266
0.0236691
0.024772
0.0259406
0.0271794
0.0284924
0.0298835
0.0313565
0.0329152
0.0345636
0.0363061
0.0381474
0.0400925
0.0421468
0.0443162
0.0466069
0.0490256
0.0515793
0.0542753
0.0571215
0.060126
0.0632974
0.0666447
0.0701773
0.073905
0.0778382
0.0819876
0.0863647
0.0909814
0.0958504
0.100985
0.106399
0.112109
0.118128
0.124476
0.131169
0.138226
0.145668
0.153515
0.161791
0.170519
0.179724
0.189434
0.199676
0.210481
0.22188
0.233906
0.246594
0.259981
0.274105
0.289004
0.304722
0.3213
0.338784
0.357219
0.376653
0.397136
0.418716
0.441446
0.465375
0.490556
0.51704
0.544876
0.574113
0.604797
0.636971
0.67068
0.705962
0.742858
0.781399
0.821616
0.863534
0.907174
0.952549
0.99967
1.04854
1.09916
1.15151
1.20558
1.26134
1.31875
1.37776
1.4383
1.50034
1.56381
1.62864
1.69475
1.76208
1.83054
1.90005
1.97051
2.04186
2.11399
2.18684
2.26033
2.33439
2.40896
2.48396
2.55935
2.63502
2.71087
2.78674
2.86246
2.93748
3.01153
3.08441
3.15596
3.22606
3.29456
3.36134
3.42628
3.48928
3.55023
3.60905
3.66563
3.71992
3.77184
3.82133
3.8682
3.91243
3.95398
3.9928
4.02886
4.06209
4.09248
4.11999
4.14459
4.16628
4.18505
4.20088
4.21377
4.22373
4.23078
4.23493
4.23624
4.23473
4.23046
4.22348
4.21387
4.2017
4.18707
4.1701
4.1509
4.12962
4.10643
4.08149
4.05502
4.02723
3.99837
3.96868
3.93843
3.90791
3.87741
3.84722
3.81763
3.78891
3.76133
3.73511
3.71044
3.68747
3.66621
3.64664
3.62831
3.61155
0.00384092
0.00683005
0.0089233
0.0105416
0.0119
0.0130882
0.0141555
0.0151357
0.0160546
0.0169335
0.0177904
0.0186404
0.0194972
0.0203724
0.0212767
0.0222196
0.0232093
0.0242527
0.0253557
0.026523
0.0277586
0.0290659
0.0304484
0.0319092
0.033452
0.0350804
0.0367985
0.0386107
0.0405219
0.0425375
0.0446633
0.0469055
0.0492707
0.0517659
0.0543986
0.0571765
0.060108
0.0632017
0.0664665
0.069912
0.0735481
0.0773853
0.0814345
0.0857073
0.0902159
0.0949733
0.0999933
0.105291
0.110881
0.116781
0.123009
0.129583
0.136525
0.143857
0.1516
0.159781
0.168425
0.177561
0.187219
0.19743
0.208229
0.219651
0.231735
0.244521
0.25805
0.272369
0.287521
0.303555
0.32052
0.338467
0.357451
0.377525
0.398747
0.421174
0.444864
0.469875
0.496267
0.524097
0.553422
0.584295
0.616761
0.650864
0.686649
0.724158
0.763429
0.804496
0.847387
0.892125
0.938725
0.987199
1.03755
1.08978
1.14387
1.19982
1.25761
1.31719
1.37853
1.44152
1.50612
1.57226
1.63987
1.70888
1.77922
1.85079
1.9235
1.99725
2.07196
2.14753
2.22385
2.30085
2.37843
2.45653
2.53507
2.61398
2.69319
2.77262
2.8522
2.93165
3.01043
3.08828
3.16503
3.24053
3.31463
3.3872
3.4581
3.52721
3.5944
3.65956
3.72257
3.78333
3.84175
3.89775
3.95123
4.0021
4.05025
4.0956
4.13811
4.17769
4.21431
4.2479
4.27842
4.30582
4.33008
4.35116
4.36905
4.38374
4.39522
4.40347
4.40853
4.4104
4.40912
4.40472
4.39727
4.38682
4.37345
4.35725
4.33832
4.31679
4.29281
4.26654
4.23817
4.20791
4.176
4.14268
4.10824
4.07297
4.0372
4.00126
3.96547
3.9302
3.89579
3.86257
3.83084
3.80089
3.77294
3.74716
3.72361
3.70227
3.68271
3.66521
0.00398891
0.00716493
0.00930865
0.0109412
0.0123029
0.0134896
0.0145532
0.0155287
0.0164427
0.0173165
0.0181679
0.0190121
0.0198626
0.0207313
0.0216291
0.0225656
0.023549
0.0245857
0.025681
0.0268387
0.028062
0.0293538
0.0307167
0.0321535
0.0336672
0.0352612
0.036939
0.0387051
0.040564
0.0425209
0.0445817
0.0467525
0.0490401
0.0514513
0.0539938
0.0566753
0.0595042
0.0624891
0.0656393
0.0689642
0.0724739
0.0761791
0.0800909
0.0842212
0.0885824
0.0931881
0.0980527
0.103192
0.108622
0.114361
0.120429
0.126846
0.133636
0.140822
0.14843
0.156489
0.165028
0.17408
0.183678
0.193859
0.204663
0.216131
0.228309
0.241244
0.254986
0.269588
0.285103
0.301587
0.319096
0.337688
0.357426
0.378373
0.400594
0.424153
0.449117
0.47555
0.503519
0.533087
0.564319
0.597272
0.631989
0.66849
0.706821
0.747027
0.789141
0.833192
0.879201
0.927182
0.977143
1.02908
1.083
1.13888
1.19671
1.25645
1.3181
1.38163
1.447
1.514
1.58259
1.65273
1.72433
1.79732
1.87161
1.94711
2.02371
2.10131
2.17981
2.2591
2.33907
2.41963
2.50068
2.58213
2.6639
2.74592
2.82809
2.91031
2.99242
3.07388
3.15442
3.23393
3.31227
3.38929
3.46487
3.53887
3.61116
3.68162
3.75011
3.81651
3.8807
3.94257
4.00203
4.05896
4.11327
4.16486
4.21362
4.25947
4.30233
4.34212
4.37877
4.41222
4.4424
4.46927
4.49277
4.51288
4.52956
4.54279
4.55256
4.55885
4.56168
4.56105
4.557
4.54956
4.53879
4.52476
4.50755
4.48726
4.464
4.43791
4.40916
4.37794
4.34445
4.30893
4.27164
4.23288
4.19294
4.15218
4.11095
4.06962
4.02858
3.98822
3.94895
3.91115
3.87518
3.84136
3.80998
3.78125
3.75525
3.732
3.71109
3.69278
0.0041272
0.00747621
0.00964972
0.0112776
0.0126239
0.0137908
0.014833
0.0157873
0.0166809
0.0175352
0.0183678
0.0191935
0.0200257
0.0208767
0.0217576
0.0226784
0.0236467
0.0246683
0.025747
0.0268858
0.0280869
0.0293524
0.0306843
0.0320846
0.0335559
0.0351009
0.036723
0.038426
0.0402145
0.0420937
0.0440692
0.0461473
0.0483348
0.0506389
0.0530669
0.055627
0.0583274
0.0611771
0.0641854
0.0673621
0.0707175
0.0742626
0.0780089
0.0819688
0.0861554
0.0905831
0.0952674
0.100225
0.105475
0.111036
0.116931
0.123183