/*--------------------------------*- C++ -*----------------------------------*\
| =========                 |                                                 |
| \\      /  F ield         | OpenFOAM: The Open Source CFD Toolbox           |
|  \\    /   O peration     | Version:  1.4.2                                 |
|   \\  /    A nd           | Web:      http://www.openfoam.org               |
|    \\/     M anipulation  |                                                 |
\*---------------------------------------------------------------------------*/
FoamFile
{
    version     2.0;
    format      ascii;
    class       volScalarField;
    object      p;
    location    "900";
}
// * * * * * * * * * * * * * * * * * * * * * * * * * * * * * * * * * * * * * //

dimensions      [0 2 -2 0 0 0 0];

internalField   nonuniform List<scalar> 
12225
(
-4.96217
-5.79975
-6.04904
-6.1466
-6.25231
-6.35598
-6.44753
-6.53064
-6.60927
-6.68515
-6.75933
-6.83294
-6.90726
-6.98396
-7.06545
-7.15575
-7.26164
-7.40977
-5.1285
-5.8069
-6.04703
-6.14819
-6.25292
-6.35489
-6.44525
-6.52743
-6.60518
-6.6802
-6.75355
-6.82632
-6.8998
-6.97559
-7.05596
-7.14454
-7.24746
-7.38057
-5.30754
-5.80286
-6.03625
-6.14588
-6.25077
-6.35131
-6.44099
-6.52284
-6.60024
-6.67486
-6.74774
-6.81993
-6.89262
-6.96721
-7.0455
-7.12991
-7.22264
-7.32532
-5.46469
-5.82043
-6.03915
-6.15316
-6.25649
-6.35454
-6.44287
-6.52396
-6.60074
-6.67475
-6.74699
-6.81841
-6.89002
-6.96293
-7.03834
-7.11739
-7.19976
-7.28248
-5.59451
-5.85181
-6.04976
-6.16432
-6.26527
-6.36045
-6.44696
-6.52685
-6.60259
-6.67557
-6.74674
-6.81691
-6.8869
-6.95747
-7.02922
-7.10228
-7.17503
-7.24322
-5.70756
-5.89152
-6.0653
-6.17734
-6.27514
-6.36723
-6.45177
-6.53029
-6.60485
-6.67666
-6.74655
-6.81521
-6.88323
-6.95104
-7.01878
-7.08589
-7.15034
-7.20817
-5.80777
-5.93705
-6.08556
-6.19221
-6.28594
-6.37442
-6.45652
-6.53335
-6.60647
-6.67688
-6.74527
-6.81216
-6.87791
-6.94269
-7.00626
-7.06778
-7.12526
-7.17559
-5.88388
-5.97883
-6.1065
-6.2066
-6.2961
-6.38103
-6.46061
-6.53557
-6.60712
-6.67604
-6.74286
-6.80796
-6.87155
-6.93359
-6.9937
-7.05095
-7.10362
-7.14928
-5.94484
-6.01685
-6.12707
-6.22076
-6.30606
-6.38754
-6.46461
-6.53765
-6.60753
-6.67488
-6.74007
-6.80338
-6.86488
-6.92442
-6.98153
-7.03532
-7.0844
-7.12677
-6.00485
-6.05835
-6.15122
-6.23744
-6.31777
-6.39524
-6.46932
-6.54001
-6.60786
-6.67327
-6.73649
-6.79766
-6.85676
-6.91354
-6.96752
-7.01791
-7.06365
-7.10317
-6.06309
-6.10235
-6.17883
-6.25662
-6.33127
-6.40417
-6.47472
-6.54261
-6.608
-6.67109
-6.732
-6.79072
-6.84713
-6.90097
-6.95177
-6.99889
-7.04157
-7.07865
-6.11868
-6.14749
-6.20934
-6.27807
-6.34647
-6.4143
-6.48082
-6.5454
-6.6079
-6.66829
-6.72652
-6.78248
-6.83599
-6.88677
-6.93442
-6.97846
-7.01836
-7.05334
-6.17081
-6.19221
-6.24167
-6.30126
-6.36304
-6.42543
-6.48746
-6.54829
-6.60748
-6.66478
-6.72
-6.77296
-6.82341
-6.87109
-6.91568
-6.95685
-6.99426
-7.0274
-6.21847
-6.23473
-6.27421
-6.32518
-6.38025
-6.43705
-6.49431
-6.55103
-6.60656
-6.66046
-6.71243
-6.7622
-6.80952
-6.85414
-6.89581
-6.93434
-6.9695
-7.001
-6.26025
-6.273
-6.30483
-6.34822
-6.39693
-6.44824
-6.50069
-6.55316
-6.60484
-6.65517
-6.70376
-6.75029
-6.79449
-6.83616
-6.87511
-6.91123
-6.94438
-6.9744
-6.29412
-6.30454
-6.33085
-6.36813
-6.41128
-6.45761
-6.50553
-6.55389
-6.60179
-6.6486
-6.69387
-6.73725
-6.77849
-6.81741
-6.85388
-6.88783
-6.91918
-6.94786
-6.31708
-6.32606
-6.34883
-6.38181
-6.42076
-6.46309
-6.50724
-6.55204
-6.59658
-6.64022
-6.68247
-6.72301
-6.76161
-6.79811
-6.83241
-6.86447
-6.89426
-6.92175
-6.32407
-6.33254
-6.354
-6.38516
-6.42204
-6.46218
-6.50405
-6.54654
-6.58878
-6.63014
-6.67018
-6.7086
-6.7452
-6.77985
-6.81249
-6.8431
-6.87165
-6.89814
-6.31453
-6.32344
-6.34589
-6.37787
-6.41507
-6.45506
-6.49643
-6.53814
-6.57939
-6.61963
-6.65847
-6.69567
-6.73106
-6.76456
-6.79614
-6.82579
-6.85352
-6.87933
-6.29243
-6.30279
-6.32837
-6.36341
-6.40279
-6.4442
-6.48641
-6.5285
-6.56975
-6.60973
-6.64813
-6.68477
-6.71956
-6.75243
-6.7834
-6.81248
-6.83969
-6.86504
-6.26029
-6.27346
-6.3046
-6.34468
-6.38762
-6.43152
-6.47546
-6.51865
-6.56052
-6.60077
-6.63919
-6.6757
-6.71024
-6.74281
-6.77344
-6.80217
-6.82905
-6.85408
-6.2193
-6.23741
-6.27709
-6.32395
-6.37137
-6.41842
-6.46461
-6.5093
-6.55212
-6.59291
-6.63161
-6.66822
-6.70273
-6.73519
-6.76565
-6.79417
-6.82081
-6.84559
-6.16969
-6.19623
-6.24809
-6.30303
-6.35533
-6.40585
-6.45452
-6.50086
-6.54472
-6.58616
-6.62527
-6.66209
-6.69669
-6.72916
-6.75956
-6.78797
-6.81445
-6.839
-6.11086
-6.15152
-6.21972
-6.28331
-6.34037
-6.3944
-6.44554
-6.49347
-6.53835
-6.58046
-6.61998
-6.65706
-6.69181
-6.72435
-6.75476
-6.78312
-6.80949
-6.83381
-6.04152
-6.10515
-6.19393
-6.2657
-6.32699
-6.38436
-6.4378
-6.48713
-6.53289
-6.57558
-6.61548
-6.65281
-6.68773
-6.72038
-6.75087
-6.77926
-6.80557
-6.82972
-5.95989
-6.05943
-6.17218
-6.25053
-6.31523
-6.37563
-6.43108
-6.48157
-6.52803
-6.57119
-6.61141
-6.64897
-6.68407
-6.71689
-6.74753
-6.77607
-6.80247
-6.82654
-5.86246
-6.01796
-6.15563
-6.23768
-6.30495
-6.36813
-6.42533
-6.47678
-6.52387
-6.56748
-6.60806
-6.64592
-6.68129
-6.71438
-6.74533
-6.77422
-6.80098
-6.82535
-5.73758
-5.98655
-6.14683
-6.228
-6.2968
-6.36249
-6.42119
-6.47341
-6.52101
-6.565
-6.60588
-6.64396
-6.67954
-6.71284
-6.74407
-6.77336
-6.80069
-6.82585
-5.5766
-5.97575
-6.15394
-6.22905
-6.29748
-6.36455
-6.42393
-6.47633
-6.52399
-6.56804
-6.60895
-6.64706
-6.68266
-6.71603
-6.74741
-6.77708
-6.80522
-6.83234
-5.41369
-5.9592
-6.15393
-6.22635
-6.29535
-6.36378
-6.42393
-6.47672
-6.52468
-6.569
-6.61016
-6.64852
-6.68437
-6.718
-6.74969
-6.7798
-6.80887
-6.84093
-7.47155
-7.47149
-7.47144
-7.47144
-7.47149
-7.4716
-7.47175
-7.47196
-7.47221
-7.47248
-7.47279
-7.47311
-7.47345
-7.4738
-7.47416
-7.47453
-7.47493
-7.47535
-7.47579
-7.47627
-7.47679
-7.47736
-7.47799
-7.47868
-7.47943
-7.48025
-7.48117
-7.48219
-7.48334
-7.48461
-7.48603
-7.48763
-7.48942
-7.49143
-7.49368
-7.4962
-7.49901
-7.50214
-7.50561
-7.50944
-7.51365
-7.51826
-7.52329
-7.52875
-7.53465
-7.54102
-7.54787
-7.5552
-7.56304
-7.5714
-7.58028
-7.58971
-7.59968
-7.61022
-7.62133
-7.63303
-7.64532
-7.65822
-7.67173
-7.68587
-7.70064
-7.71604
-7.73208
-7.74877
-7.76609
-7.78406
-7.80267
-7.8219
-7.84175
-7.86221
-7.88325
-7.90484
-7.92697
-7.94961
-7.97278
-7.99652
-8.02102
-8.04627
-8.07178
-8.09722
-8.1227
-8.14818
-8.17361
-8.19893
-8.22403
-8.24882
-8.2732
-8.29704
-8.32022
-8.34262
-8.36409
-8.38449
-8.40368
-8.42149
-8.43777
-8.45234
-8.46503
-8.47567
-8.48405
-8.49
-8.49331
-8.49378
-8.49118
-8.4853
-8.47591
-8.46276
-8.4456
-8.42416
-8.39818
-8.36736
-8.33141
-8.29003
-8.24292
-8.18977
-8.13026
-8.06412
-7.99104
-7.91079
-7.82312
-7.72783
-7.62474
-7.51374
-7.3947
-7.26755
-7.13223
-6.98878
-6.83733
-6.67801
-6.51098
-6.33644
-6.15458
-5.96563
-5.7698
-5.56736
-5.35856
-5.14368
-4.923
-4.6968
-4.46538
-4.22903
-3.98805
-3.74272
-3.49333
-3.24014
-2.98343
-2.72343
-2.46038
-2.19448
-1.92593
-1.65489
-1.3815
-1.10586
-0.828056
-0.548134
-0.266103
0.0180525
0.304377
0.592948
0.883877
1.1773
1.47339
1.77235
2.07437
2.37969
2.68852
3.00111
3.31769
3.63845
3.96351
4.29301
4.62697
4.96527
5.30775
5.65406
6.00381
6.35641
6.71188
7.06865
7.43316
7.78261
-7.47167
-7.4716
-7.47156
-7.47157
-7.47163
-7.47175
-7.4719
-7.4721
-7.47232
-7.47256
-7.47282
-7.47309
-7.47336
-7.47365
-7.47395
-7.47427
-7.4746
-7.47495
-7.47533
-7.47573
-7.47617
-7.47666
-7.4772
-7.47779
-7.47845
-7.47917
-7.47997
-7.48086
-7.48187
-7.483
-7.48427
-7.48571
-7.48734
-7.48917
-7.49125
-7.49358
-7.49621
-7.49913
-7.50239
-7.506
-7.50998
-7.51435
-7.51913
-7.52432
-7.52995
-7.53604
-7.54258
-7.54961
-7.55712
-7.56514
-7.57367
-7.58273
-7.59232
-7.60247
-7.61318
-7.62446
-7.63633
-7.64879
-7.66186
-7.67555
-7.68987
-7.70482
-7.72041
-7.73665
-7.75353
-7.77108
-7.78927
-7.80813
-7.82764
-7.84779
-7.86858
-7.88998
-7.91198
-7.93454
-7.95761
-7.98114
-8.00496
-8.02881
-8.05299
-8.07767
-8.10254
-8.12748
-8.1524
-8.17723
-8.20186
-8.22621
-8.25016
-8.2736
-8.29641
-8.31847
-8.33963
-8.35976
-8.37871
-8.39633
-8.41245
-8.42692
-8.43955
-8.45018
-8.45861
-8.46466
-8.46814
-8.46883
-8.46653
-8.46103
-8.45208
-8.43947
-8.42293
-8.40222
-8.37705
-8.34716
-8.31225
-8.27202
-8.22618
-8.17441
-8.11641
-8.05187
-7.98052
-7.90208
-7.81632
-7.72303
-7.62201
-7.51314
-7.3963
-7.27136
-7.13821
-6.99691
-6.84758
-6.69036
-6.52542
-6.35292
-6.17307
-5.98607
-5.79216
-5.59158
-5.38459
-5.17145
-4.95245
-4.72787
-4.498
-4.26314
-4.02358
-3.7796
-3.5315
-3.27954
-3.02399
-2.7651
-2.50309
-2.23819
-1.97059
-1.70045
-1.42792
-1.15311
-0.876108
-0.596967
-0.315707
-0.0323116
0.253259
0.541072
0.831232
1.12387
1.41915
1.71727
2.01842
2.32284
2.63073
2.94234
3.2579
3.57759
3.90157
4.22997
4.56284
4.9001
5.24165
5.58719
5.93646
6.28885
6.64482
7.00154
7.36846
7.71337
-7.47164
-7.47158
-7.47154
-7.47157
-7.47165
-7.47179
-7.47196
-7.47215
-7.47236
-7.47257
-7.47278
-7.473
-7.47322
-7.47345
-7.47368
-7.47393
-7.47419
-7.47448
-7.47479
-7.47513
-7.4755
-7.47592
-7.47639
-7.47691
-7.47749
-7.47815
-7.47889
-7.47972
-7.48067
-7.48175
-7.48298
-7.48437
-7.48595
-7.48774
-7.48976
-7.49204
-7.49459
-7.49744
-7.50061
-7.50412
-7.50798
-7.51222
-7.51685
-7.52188
-7.52734
-7.53323
-7.53957
-7.54638
-7.55367
-7.56145
-7.56973
-7.57853
-7.58785
-7.59772
-7.60815
-7.61914
-7.63071
-7.64287
-7.65563
-7.669
-7.68299
-7.69761
-7.71287
-7.72876
-7.74529
-7.76247
-7.7803
-7.79877
-7.81787
-7.8376
-7.85795
-7.8789
-7.90043
-7.92252
-7.94514
-7.96825
-7.99177
-8.01554
-8.03956
-8.06385
-8.0883
-8.11282
-8.13733
-8.16176
-8.18601
-8.20998
-8.23358
-8.25668
-8.27917
-8.30092
-8.3218
-8.34167
-8.36039
-8.37779
-8.39373
-8.40805
-8.42056
-8.43111
-8.4395
-8.44555
-8.44907
-8.44986
-8.44771
-8.44241
-8.43374
-8.42147
-8.40535
-8.38513
-8.36054
-8.33132
-8.29717
-8.25781
-8.21293
-8.16222
-8.10538
-8.04211
-7.97212
-7.89514
-7.81092
-7.71924
-7.61991
-7.51279
-7.39776
-7.27461
-7.14323
-7.00373
-6.85621
-6.7008
-6.53766
-6.36696
-6.18889
-6.00366
-5.8115
-5.61264
-5.40734
-5.19587
-4.9785
-4.75552
-4.52722
-4.29389
-4.05583
-3.81332
-3.56664
-3.31608
-3.0619
-2.80435
-2.54367
-2.28007
-2.01375
-1.74488
-1.47363
-1.2001
-0.92438
-0.646536
-0.366594
-0.0845416
0.199653
0.486052
0.774755
1.06588
1.3596
1.65609
1.95555
2.2582
2.56426
2.87396
3.18753
3.50519
3.82708
4.15336
4.4841
4.81926
5.15884
5.50254
5.8503
6.20138
6.55684
6.91174
7.28058
7.61588
-7.47137
-7.47134
-7.47134
-7.47139
-7.47151
-7.47166
-7.47182
-7.472
-7.47218
-7.47236
-7.47254
-7.47272
-7.47291
-7.4731
-7.47329
-7.47348
-7.4737
-7.47393
-7.47419
-7.47447
-7.4748
-7.47517
-7.47559
-7.47608
-7.47663
-7.47726
-7.47799
-7.47881
-7.47976
-7.48084
-7.48208
-7.48348
-7.48507
-7.48688
-7.48891
-7.49119
-7.49375
-7.49659
-7.49975
-7.50323
-7.50707
-7.51127
-7.51585
-7.52083
-7.52622
-7.53204
-7.53831
-7.54503
-7.55223
-7.55991
-7.56809
-7.57679
-7.58601
-7.59577
-7.60609
-7.61697
-7.62842
-7.64046
-7.6531
-7.66635
-7.68022
-7.69471
-7.70984
-7.7256
-7.742
-7.75904
-7.77672
-7.79503
-7.81398
-7.83354
-7.8537
-7.87444
-7.89573
-7.91756
-7.93988
-7.96266
-7.98585
-8.00938
-8.03322
-8.0573
-8.08156
-8.1059
-8.13025
-8.15453
-8.17864
-8.20248
-8.22595
-8.24894
-8.27133
-8.29299
-8.31379
-8.33359
-8.35225
-8.36962
-8.38553
-8.39983
-8.41236
-8.42293
-8.43137
-8.43749
-8.44111
-8.44203
-8.44005
-8.43495
-8.42652
-8.41453
-8.39874
-8.3789
-8.35475
-8.32602
-8.29242
-8.25367
-8.20945
-8.15946
-8.10339
-8.04094
-7.97181
-7.89573
-7.81244
-7.72171
-7.62337
-7.51726
-7.4032
-7.28095
-7.15046
-7.01187
-6.86526
-6.71077
-6.54855
-6.37877
-6.20161
-6.01728
-5.82601
-5.62804
-5.42362
-5.21301
-4.99649
-4.77435
-4.54688
-4.31438
-4.07713
-3.83543
-3.58957
-3.33983
-3.08647
-2.82976
-2.56992
-2.30718
-2.04175
-1.7738
-1.50349
-1.23095
-0.956261
-0.679495
-0.400681
-0.119814
0.163132
0.448214
0.735531
1.0252
1.31737
1.61225
1.91002
2.21089
2.5151
2.82286
3.13444
3.45006
3.76983
4.09398
4.4226
4.75561
5.09314
5.43483
5.78079
6.12997
6.48404
6.83626
7.20534
7.52957
-7.47079
-7.47082
-7.47088
-7.47099
-7.47114
-7.47131
-7.47148
-7.47165
-7.47182
-7.47199
-7.47215
-7.47231
-7.47246
-7.47262
-7.47277
-7.47294
-7.47312
-7.47332
-7.47355
-7.47382
-7.47412
-7.47448
-7.47489
-7.47537
-7.47592
-7.47656
-7.47731
-7.47816
-7.47914
-7.48026
-7.48153
-7.48298
-7.48463
-7.48648
-7.48857
-7.4909
-7.4935
-7.49639
-7.49958
-7.5031
-7.50695
-7.51117
-7.51576
-7.52074
-7.52613
-7.53194
-7.53819
-7.54489
-7.55205
-7.5597
-7.56784
-7.57648
-7.58565
-7.59535
-7.60559
-7.6164
-7.62777
-7.63973
-7.65229
-7.66544
-7.67922
-7.69361
-7.70863
-7.72428
-7.74056
-7.75748
-7.77504
-7.79322
-7.81203
-7.83145
-7.85147
-7.87206
-7.8932
-7.91487
-7.93703
-7.95965
-7.98268
-8.00607
-8.02978
-8.05375
-8.07789
-8.10213
-8.12639
-8.15059
-8.17462
-8.1984
-8.22182
-8.24477
-8.26712
-8.28875
-8.30953
-8.32933
-8.34799
-8.36537
-8.38131
-8.39565
-8.40823
-8.41887
-8.4274
-8.43364
-8.4374
-8.43848
-8.43669
-8.43182
-8.42365
-8.41196
-8.39651
-8.37705
-8.35332
-8.32506
-8.29198
-8.25378
-8.21016
-8.1608
-8.10539
-8.04362
-7.97519
-7.89981
-7.81723
-7.7272
-7.62956
-7.52415
-7.41064
-7.28884
-7.15884
-7.02073
-6.8746
-6.72058
-6.55882
-6.38948
-6.21276
-6.02886
-5.83801
-5.64044
-5.4364
-5.22617
-5.01002
-4.78825
-4.56113
-4.32898
-4.09209
-3.85075
-3.60527
-3.35591
-3.10296
-2.84667
-2.58729
-2.32504
-2.06014
-1.79276
-1.52308
-1.25122
-0.977277
-0.701322
-0.423386
-0.143471
0.138443
0.422411
0.708526
0.996904
1.2877
1.58111
1.87732
2.17656
2.47903
2.78499
3.0947
3.40841
3.72618
4.04833
4.37495
4.70588
5.04144
5.38108
5.72518
6.07239
6.42484
6.77481
7.14332
7.45656
-7.4699
-7.47001
-7.47016
-7.47035
-7.47055
-7.47075
-7.47093
-7.47112
-7.47129
-7.47146
-7.47161
-7.47175
-7.47189
-7.47203
-7.47217
-7.47233
-7.4725
-7.4727
-7.47292
-7.47319
-7.4735
-7.47386
-7.47429
-7.47479
-7.47537
-7.47605
-7.47683
-7.47774
-7.47877
-7.47996
-7.48131
-7.48283
-7.48455
-7.48649
-7.48865
-7.49107
-7.49375
-7.49671
-7.49998
-7.50356
-7.50748
-7.51175
-7.51639
-7.52141
-7.52683
-7.53267
-7.53894
-7.54565
-7.55282
-7.56046
-7.56859
-7.57722
-7.58636
-7.59603
-7.60625
-7.61701
-7.62835
-7.64026
-7.65277
-7.66587
-7.67958
-7.69392
-7.70887
-7.72446
-7.74067
-7.75752
-7.77501
-7.79312
-7.81185
-7.83119
-7.85113
-7.87165
-7.89272
-7.91431
-7.93641
-7.95896
-7.98193
-8.00527
-8.02893
-8.05285
-8.07695
-8.10117
-8.12541
-8.14959
-8.17362
-8.19741
-8.22083
-8.24379
-8.26616
-8.28782
-8.30864
-8.32847
-8.34718
-8.36461
-8.38062
-8.39503
-8.4077
-8.41843
-8.42708
-8.43344
-8.43734
-8.43859
-8.43699
-8.43234
-8.42442
-8.41301
-8.39787
-8.37877
-8.35543
-8.3276
-8.29497
-8.25727
-8.21416
-8.16534
-8.11048
-8.04927
-7.98139
-7.90655
-7.82449
-7.73496
-7.63778
-7.53277
-7.4195
-7.29784
-7.16802
-7.03008
-6.88411
-6.73025
-6.56864
-6.39945
-6.22286
-6.03908
-5.84833
-5.65085
-5.44689
-5.23673
-5.02065
-4.79893
-4.57188
-4.33979
-4.10297
-3.86172
-3.61634
-3.36711
-3.1143
-2.85819
-2.59903
-2.33704
-2.07245
-1.80544
-1.53619
-1.26482
-0.991447
-0.716138
-0.438925
-0.159816
0.121202
0.40418
0.689207
0.976399
1.2659
1.55793
1.85267
2.15034
2.45113
2.75532
3.06321
3.37502
3.69076
4.01089
4.33547
4.66418
4.99771
5.33526
5.67742
6.02313
6.37379
6.72106
7.08877
7.39219
-7.46877
-7.46896
-7.46923
-7.46951
-7.46977
-7.47001
-7.47024
-7.47045
-7.47064
-7.4708
-7.47096
-7.4711
-7.47125
-7.47139
-7.47154
-7.4717
-7.47189
-7.47209
-7.47234
-7.47262
-7.47295
-7.47335
-7.47381
-7.47435
-7.47498
-7.47572
-7.47656
-7.47754
-7.47865
-7.47992
-7.48136
-7.48298
-7.4848
-7.48683
-7.4891
-7.49162
-7.4944
-7.49746
-7.50082
-7.5045
-7.5085
-7.51285
-7.51756
-7.52265
-7.52813
-7.53402
-7.54033
-7.54708
-7.55427
-7.56194
-7.57008
-7.57873
-7.58787
-7.59755
-7.60776
-7.61851
-7.62984
-7.64174
-7.65422
-7.66731
-7.681
-7.69531
-7.71024
-7.7258
-7.74199
-7.75882
-7.77628
-7.79436
-7.81307
-7.8324
-7.85232
-7.87282
-7.89388
-7.91547
-7.93757
-7.96013
-7.98311
-8.00647
-8.03015
-8.05409
-8.07822
-8.10246
-8.12675
-8.15097
-8.17505
-8.19889
-8.22237
-8.24539
-8.26783
-8.28956
-8.31045
-8.33035
-8.34914
-8.36666
-8.38275
-8.39726
-8.41003
-8.42087
-8.42963
-8.43613
-8.44018
-8.44159
-8.44017
-8.43573
-8.42804
-8.41689
-8.40205
-8.38326
-8.36028
-8.33283
-8.30062
-8.26334
-8.22069
-8.17232
-8.11792
-8.05716
-7.98971
-7.91528
-7.83358
-7.74437
-7.6475
-7.5426
-7.42924
-7.30751
-7.17763
-7.03963
-6.89361
-6.73969
-6.578
-6.40873
-6.23205
-6.04817
-5.85731
-5.65972
-5.45564
-5.24535
-5.02913
-4.80728
-4.5801
-4.34789
-4.11096
-3.86962
-3.62417
-3.37489
-3.12208
-2.866
-2.6069
-2.34503
-2.08061
-1.81383
-1.54488
-1.27388
-1.00096
-0.726178
-0.449575
-0.171161
0.109068
0.391161
0.675202
0.961303
1.24961
1.54036
1.83371
2.12989
2.42906
2.73153
3.03767
3.34762
3.66125
3.97936
4.30196
4.62842
4.95994
5.29592
5.63615
5.97987
6.32855
6.67311
7.03999
7.33494
-7.46748
-7.46777
-7.46816
-7.46854
-7.46888
-7.46918
-7.46944
-7.46968
-7.46989
-7.47008
-7.47025
-7.47042
-7.47058
-7.47075
-7.47092
-7.47111
-7.47132
-7.47155
-7.47183
-7.47214
-7.47251
-7.47295
-7.47346
-7.47405
-7.47475
-7.47555
-7.47647
-7.47753
-7.47873
-7.4801
-7.48164
-7.48337
-7.4853
-7.48745
-7.48984
-7.49247
-7.49536
-7.49854
-7.502
-7.50578
-7.50988
-7.51432
-7.51912
-7.52429
-7.52984
-7.5358
-7.54217
-7.54897
-7.55621
-7.56392
-7.5721
-7.58077
-7.58994
-7.59963
-7.60986
-7.62063
-7.63197
-7.64388
-7.65637
-7.66946
-7.68316
-7.69748
-7.71242
-7.72799
-7.7442
-7.76104
-7.77851
-7.79662
-7.81536
-7.83471
-7.85467
-7.87521
-7.89631
-7.91796
-7.94011
-7.96273
-7.98577
-8.0092
-8.03295
-8.05697
-8.08118
-8.1055
-8.12987
-8.15419
-8.17836
-8.20229
-8.22587
-8.24898
-8.27151
-8.29334
-8.31432
-8.33432
-8.35321
-8.37082
-8.38702
-8.40163
-8.4145
-8.42546
-8.43433
-8.44095
-8.44514
-8.44671
-8.44546
-8.44121
-8.43373
-8.42282
-8.40824
-8.38975
-8.36709
-8.33998
-8.30813
-8.27124
-8.22898
-8.18101
-8.12699
-8.06659
-7.99947
-7.92532
-7.84385
-7.75484
-7.65812
-7.55301
-7.43929
-7.31735
-7.18725
-7.04904
-6.9028
-6.74866
-6.58676
-6.41726
-6.24036
-6.05624
-5.86515
-5.66731
-5.46298
-5.25244
-5.03597
-4.81388
-4.58647
-4.35404
-4.11691
-3.87538
-3.62977
-3.38037
-3.12747
-2.87133
-2.61222
-2.35039
-2.08607
-1.81946
-1.55074
-1.28004
-1.00749
-0.733174
-0.457102
-0.179295
0.100234
0.381532
0.664679
0.949778
1.23698
1.52657
1.81868
2.11347
2.41109
2.71192
3.01646
3.32469
3.63629
3.95245
4.27338
4.59815
4.92773
5.26187
5.60025
5.94194
6.28867
6.63078
6.99677
7.28457
-7.46614
-7.46652
-7.46704
-7.46753
-7.46794
-7.46829
-7.46861
-7.46888
-7.46913
-7.46935
-7.46957
-7.46977
-7.46996
-7.47016
-7.47037
-7.47059
-7.47083
-7.4711
-7.47141
-7.47177
-7.47218
-7.47267
-7.47323
-7.47389
-7.47465
-7.47553
-7.47654
-7.47769
-7.479
-7.48047
-7.48212
-7.48396
-7.48601
-7.48828
-7.49078
-7.49353
-7.49654
-7.49983
-7.50341
-7.50729
-7.5115
-7.51604
-7.52093
-7.52618
-7.53181
-7.53784
-7.54428
-7.55114
-7.55844
-7.5662
-7.57443
-7.58314
-7.59235
-7.60208
-7.61234
-7.62315
-7.63452
-7.64646
-7.65898
-7.6721
-7.68584
-7.70019
-7.71517
-7.73078
-7.74703
-7.76391
-7.78144
-7.79961
-7.81841
-7.83783
-7.85786
-7.87848
-7.89967
-7.92141
-7.94366
-7.96638
-7.98954
-8.01307
-8.03694
-8.06107
-8.08539
-8.10984
-8.13432
-8.15876
-8.18305
-8.20709
-8.23079
-8.25401
-8.27666
-8.29859
-8.31968
-8.33979
-8.35877
-8.37648
-8.39277
-8.40748
-8.42045
-8.4315
-8.44048
-8.44721
-8.45151
-8.45321
-8.45211
-8.44802
-8.44073
-8.43002
-8.41568
-8.39744
-8.37507
-8.34826
-8.31674
-8.28018
-8.23826
-8.19062
-8.13692
-8.0768
-8.00992
-7.93595
-7.85462
-7.7657
-7.66882
-7.56324
-7.44906
-7.32678
-7.19634
-7.0578
-6.91125
-6.7568
-6.59459
-6.42479
-6.24758
-6.06317
-5.87177
-5.67363
-5.469
-5.25816
-5.04141
-4.81904
-4.59136
-4.35868
-4.12133
-3.8796
-3.63382
-3.38429
-3.1313
-2.8751
-2.61597
-2.35418
-2.08995
-1.8235
-1.55499
-1.2846
-1.01241
-0.738545
-0.462967
-0.185708
0.0931762
0.373742
0.656059
0.940207
1.22636
1.51492
1.80595
2.0995
2.39569
2.695
2.99808
3.30484
3.61505
3.92955
4.24871
4.57197
4.89991
5.23232
5.56904
5.90894
6.25389
6.59392
6.95895
7.24092
-7.46487
-7.46532
-7.46595
-7.46653
-7.46701
-7.46743
-7.4678
-7.46813
-7.46842
-7.4687
-7.46895
-7.4692
-7.46943
-7.46967
-7.46991
-7.47017
-7.47044
-7.47075
-7.47109
-7.47149
-7.47195
-7.47249
-7.47312
-7.47384
-7.47468
-7.47564
-7.47674
-7.47799
-7.47939
-7.48097
-7.48273
-7.48469
-7.48685
-7.48924
-7.49186
-7.49472
-7.49785
-7.50125
-7.50494
-7.50893
-7.51323
-7.51787
-7.52285
-7.52819
-7.5339
-7.54001
-7.54652
-7.55344
-7.56081
-7.56862
-7.57691
-7.58567
-7.59494
-7.60471
-7.61502
-7.62587
-7.63729
-7.64927
-7.66185
-7.67502
-7.6888
-7.70321
-7.71825
-7.73392
-7.75024
-7.76721
-7.78482
-7.80307
-7.82197
-7.84149
-7.86162
-7.88236
-7.90367
-7.92553
-7.94791
-7.97076
-7.99406
-8.01773
-8.04174
-8.06601
-8.09048
-8.11506
-8.13968
-8.16425
-8.18867
-8.21285
-8.23666
-8.26001
-8.28276
-8.3048
-8.32598
-8.34618
-8.36525
-8.38305
-8.39941
-8.41419
-8.42722
-8.43835
-8.44739
-8.4542
-8.45858
-8.46037
-8.45938
-8.45542
-8.44827
-8.43774
-8.42359
-8.40558
-8.38344
-8.3569
-8.32566
-8.28938
-8.24774
-8.20038
-8.14692
-8.08702
-8.02029
-7.94642
-7.86516
-7.77624
-7.67872
-7.57235
-7.45776
-7.33506
-7.20422
-7.06529
-6.91837
-6.76356
-6.60101
-6.43087
-6.25333
-6.0686
-5.8769
-5.67844
-5.47351
-5.26238
-5.04535
-4.82273
-4.59481
-4.36193
-4.12439
-3.88251
-3.63662
-3.38701
-3.13399
-2.87778
-2.61868
-2.35698
-2.0929
-1.82666
-1.55843
-1.28838
-1.01661
-0.743269
-0.468205
-0.191466
0.0867853
0.366638
0.648158
0.931393
1.21654
1.50412
1.79417
2.08662
2.38174
2.67989
2.98161
3.287
3.59604
3.90928
4.22699
4.54899
4.87561
5.20663
5.54197
5.88042
6.22389
6.56226
6.92636
7.20376
-7.46371
-7.46423
-7.46495
-7.46562
-7.46618
-7.46667
-7.4671
-7.46748
-7.46784
-7.46816
-7.46846
-7.46875
-7.46902
-7.46929
-7.46957
-7.46985
-7.47016
-7.47049
-7.47087
-7.47131
-7.47182
-7.47241
-7.47309
-7.47389
-7.4748
-7.47585
-7.47703
-7.47838
-7.47988
-7.48156
-7.48343
-7.4855
-7.48777
-7.49027
-7.493
-7.49597
-7.4992
-7.50271
-7.5065
-7.51059
-7.51499
-7.51971
-7.52478
-7.5302
-7.53599
-7.54217
-7.54875
-7.55575
-7.56318
-7.57105
-7.57939
-7.58822
-7.59754
-7.60737
-7.61773
-7.62864
-7.64011
-7.65215
-7.66479
-7.67803
-7.69188
-7.70636
-7.72148
-7.73724
-7.75364
-7.77071
-7.78842
-7.80678
-7.82579
-7.84544
-7.8657
-7.88658
-7.90803
-7.93004
-7.95257
-7.97558
-7.99903
-8.02286
-8.04703
-8.07145
-8.09607
-8.1208
-8.14556
-8.17027
-8.19481
-8.2191
-8.24303
-8.26647
-8.28932
-8.31143
-8.33269
-8.35295
-8.37207
-8.3899
-8.4063
-8.42111
-8.43416
-8.4453
-8.45436
-8.46119
-8.46561
-8.46744
-8.4665
-8.46262
-8.45557
-8.44516
-8.43116
-8.41332
-8.39138
-8.36505
-8.33404
-8.298
-8.25659
-8.20944
-8.15617
-8.0964
-8.02974
-7.9559
-7.87463
-7.7852
-7.68674
-7.57965
-7.46457
-7.34139
-7.2101
-7.07076
-6.92345
-6.76827
-6.60537
-6.4349
-6.25705
-6.07202
-5.88004
-5.6813
-5.4761
-5.26473
-5.04749
-4.82467
-4.59659
-4.36357
-4.12594
-3.884
-3.63809
-3.38852
-3.1356
-2.8795
-2.62051
-2.359
-2.09517
-1.82924
-1.56139
-1.29177
-1.02052
-0.747803
-0.473349
-0.197183
0.080376
0.359478
0.640199
0.922632
1.20696
1.49355
1.78255
2.07399
2.36817
2.66539
2.96605
3.27035
3.57846
3.89074
4.20743
4.5285
4.85416
5.18419
5.51852
5.85593
6.19828
6.53552
6.89876
7.1729
-7.46277
-7.46334
-7.46414
-7.4649
-7.46553
-7.46608
-7.46657
-7.46702
-7.46742
-7.46779
-7.46813
-7.46845
-7.46876
-7.46905
-7.46935
-7.46965
-7.46997
-7.47033
-7.47073
-7.4712
-7.47175
-7.47239
-7.47314
-7.474
-7.47498
-7.47611
-7.47738
-7.47881
-7.48041
-7.48219
-7.48416
-7.48632
-7.4887
-7.4913
-7.49413
-7.4972
-7.50053
-7.50413
-7.50801
-7.51219
-7.51667
-7.52148
-7.52663
-7.53212
-7.53799
-7.54424
-7.55088
-7.55794
-7.56543
-7.57337
-7.58177
-7.59065
-7.60002
-7.60992
-7.62034
-7.63131
-7.64284
-7.65496
-7.66766
-7.68098
-7.69491
-7.70947
-7.72468
-7.74054
-7.75705
-7.77422
-7.79206
-7.81055
-7.82969
-7.84947
-7.86989
-7.89091
-7.91252
-7.93469
-7.95738
-7.98055
-8.00416
-8.02816
-8.05248
-8.07706
-8.10182
-8.12668
-8.15156
-8.17638
-8.20102
-8.2254
-8.24939
-8.27289
-8.29577
-8.31792
-8.33918
-8.35944
-8.37855
-8.39635
-8.41272
-8.42748
-8.44048
-8.45156
-8.46057
-8.46735
-8.47172
-8.47353
-8.47259
-8.46872
-8.46171
-8.45137
-8.43746
-8.41973
-8.39794
-8.37178
-8.34095
-8.3051
-8.26387
-8.21689
-8.16374
-8.10403
-8.0374
-7.96355
-7.88193
-7.79131
-7.69172
-7.58412
-7.46852
-7.34485
-7.21312
-7.07337
-6.92568
-6.77016
-6.60693
-6.43616
-6.25805
-6.07278
-5.8806
-5.68165
-5.47623
-5.2647
-5.04732
-4.82441
-4.59627
-4.36323
-4.12562
-3.88374
-3.63794
-3.38854
-3.13589
-2.88004
-2.62129
-2.36011
-2.09669
-1.83121
-1.56387
-1.29481
-1.02415
-0.75202
-0.478292
-0.202967
0.0737708
0.352032
0.631897
0.913492
1.19699
1.48266
1.77068
2.06122
2.35455
2.65098
2.95082
3.25434
3.56175
3.87338
4.18941
4.5099
4.83497
5.16443
5.49816
5.83498
6.17666
6.5133
6.87584
7.14807
-7.46211
-7.46272
-7.4636
-7.46443
-7.46513
-7.46573
-7.46627
-7.46676
-7.46721
-7.46761
-7.46798
-7.46832
-7.46864
-7.46894
-7.46923
-7.46954
-7.46986
-7.47023
-7.47065
-7.47115
-7.47173
-7.47242
-7.47322
-7.47414
-7.4752
-7.4764
-7.47775
-7.47926
-7.48095
-7.48281
-7.48487
-7.48713
-7.48959
-7.49228
-7.4952
-7.49836
-7.50177
-7.50545
-7.50941
-7.51366
-7.51822
-7.5231
-7.52831
-7.53388
-7.5398
-7.54611
-7.55282
-7.55993
-7.56748
-7.57547
-7.58393
-7.59287
-7.6023
-7.61225
-7.62274
-7.63377
-7.64538
-7.65756
-7.67034
-7.68374
-7.69776
-7.71242
-7.72773
-7.74369
-7.76032
-7.77761
-7.79557
-7.8142
-7.83348
-7.85341
-7.87397
-7.89514
-7.91691
-7.93923
-7.96208
-7.98541
-8.00917
-8.0333
-8.05775
-8.08245
-8.10731
-8.13226
-8.15722
-8.18208
-8.20676
-8.23115
-8.25513
-8.27861
-8.30145
-8.32352
-8.34471
-8.36487
-8.38386
-8.40155
-8.41778
-8.4324
-8.44525
-8.45618
-8.46503
-8.47167
-8.47591
-8.47761
-8.47659
-8.47266
-8.46562
-8.45528
-8.44141
-8.42376
-8.40206
-8.37602
-8.34532
-8.30962
-8.26852
-8.22165
-8.16857
-8.10893
-8.04235
-7.96822
-7.88521
-7.79307
-7.69283
-7.58473
-7.46863
-7.34451
-7.21237
-7.07226
-6.92423
-6.76841
-6.60492
-6.43392
-6.25559
-6.07016
-5.87788
-5.67885
-5.47331
-5.26171
-5.04432
-4.82142
-4.59334
-4.36041
-4.12293
-3.88125
-3.63569
-3.38656
-3.13419
-2.87876
-2.62053
-2.35988
-2.09703
-1.83218
-1.56551
-1.29716
-1.02725
-0.755872
-0.482997
-0.208631
0.0671654
0.344478
0.6234
0.90407
1.18667
1.47142
1.75854
2.04824
2.3408
2.63653
2.93573
3.23868
3.54562
3.85684
4.17253
4.49276
4.8176
5.14687
5.48043
5.81711
6.15855
6.49517
6.8572
7.12888
-7.46176
-7.46242
-7.46336
-7.46426
-7.46501
-7.46566
-7.46624
-7.46676
-7.46722
-7.46764
-7.46801
-7.46835
-7.46865
-7.46893
-7.46921
-7.46949
-7.46981
-7.47017
-7.4706
-7.47112
-7.47174
-7.47246
-7.47331
-7.47429
-7.4754
-7.47667
-7.47809
-7.47968
-7.48144
-7.48339
-7.48552
-7.48786
-7.4904
-7.49316
-7.49616
-7.49939
-7.50288
-7.50662
-7.51065
-7.51496
-7.51958
-7.52452
-7.52979
-7.5354
-7.54138
-7.54774
-7.5545
-7.56166
-7.56926
-7.5773
-7.58581
-7.5948
-7.60429
-7.6143
-7.62484
-7.63595
-7.64762
-7.65988
-7.67274
-7.68622
-7.70033
-7.71509
-7.7305
-7.74657
-7.76332
-7.78073
-7.79882
-7.81757
-7.83698
-7.85704
-7.87774
-7.89905
-7.92094
-7.94339
-7.96635
-7.98978
-8.01364
-8.03785
-8.06237
-8.08711
-8.11199
-8.13693
-8.16185
-8.18666
-8.21125
-8.23553
-8.25939
-8.28271
-8.30537
-8.32725
-8.34822
-8.36814
-8.38689
-8.40432
-8.4203
-8.43466
-8.44724
-8.45789
-8.46649
-8.47287
-8.4769
-8.47841
-8.47722
-8.47316
-8.46604
-8.45565
-8.44177
-8.42414
-8.4025
-8.37655
-8.34595
-8.31036
-8.26936
-8.22257
-8.16956
-8.11001
-8.04323
-7.96765
-7.88284
-7.78984
-7.68913
-7.58056
-7.46403
-7.33953
-7.20705
-7.06664
-6.91835
-6.76231
-6.59862
-6.42746
-6.249
-6.06346
-5.87108
-5.67205
-5.46658
-5.25505
-5.03775
-4.815
-4.58711
-4.3544
-4.11722
-3.87587
-3.63069
-3.38199
-3.13009
-2.87522
-2.61767
-2.35774
-2.09565
-1.83161
-1.5658
-1.29835
-1.02938
-0.758961
-0.487099
-0.213798
0.0609388
0.337192
0.61507
0.894724
1.17634
1.46015
1.74638
2.03527
2.32711
2.62222
2.92089
3.22342
3.53006
3.84107
4.15666
4.4769
4.80183
5.13126
5.46502
5.80197
6.14359
6.48072
6.84243
7.1149
-7.46176
-7.46247
-7.46349
-7.46445
-7.46524
-7.46591
-7.4665
-7.46702
-7.46748
-7.46787
-7.46822
-7.46852
-7.46878
-7.46901
-7.46924
-7.46949
-7.46978
-7.47013
-7.47056
-7.47109
-7.47173
-7.47249
-7.47338
-7.47441
-7.47558
-7.4769
-7.47839
-7.48004
-7.48187
-7.48388
-7.48608
-7.48849
-7.4911
-7.49392
-7.49698
-7.50027
-7.50381
-7.50761
-7.51169
-7.51605
-7.52071
-7.52569
-7.531
-7.53666
-7.54268
-7.54908
-7.55587
-7.56308
-7.57072
-7.5788
-7.58736
-7.59639
-7.60593
-7.616
-7.6266
-7.63777
-7.64951
-7.66184
-7.67478
-7.68834
-7.70254
-7.71738
-7.73289
-7.74906
-7.7659
-7.78341
-7.8016
-7.82045
-7.83995
-7.86009
-7.88086
-7.90223
-7.92417
-7.94665
-7.96963
-7.99306
-8.01689
-8.04106
-8.06551
-8.09015
-8.1149
-8.13966
-8.16437
-8.18895
-8.21328
-8.23728
-8.26082
-8.28381
-8.30613
-8.32764
-8.34822
-8.36775
-8.3861
-8.40313
-8.41871
-8.4327
-8.44492
-8.45521
-8.46345
-8.46952
-8.47326
-8.47451
-8.47312
-8.46889
-8.46165
-8.45119
-8.43727
-8.41966
-8.39808
-8.37222
-8.34174
-8.30627
-8.26542
-8.21876
-8.16578
-8.10587
-8.03743
-7.95977
-7.87402
-7.78064
-7.67955
-7.57061
-7.45376
-7.32897
-7.19624
-7.05562
-6.90717
-6.75099
-6.58721
-6.41598
-6.23749
-6.05195
-5.85957
-5.66061
-5.45531
-5.24397
-5.02692
-4.80445
-4.5769
-4.3446
-4.10786
-3.86702
-3.62241
-3.37434
-3.12311
-2.869
-2.61229
-2.35325
-2.09211
-1.82907
-1.5643
-1.29793
-1.03008
-0.7608
-0.490107
-0.217992
0.0555658
0.330653
0.607395
0.885955
1.16653
1.44936
1.73469
2.02278
2.31393
2.60845
2.90667
3.20888
3.51534
3.82632
4.14199
4.46246
4.78772
5.11758
5.45186
5.78943
6.13158
6.46967
6.83123
7.10577
-7.46218
-7.46294
-7.46405
-7.46506
-7.46587
-7.46653
-7.4671
-7.46757
-7.46798
-7.46831
-7.46858
-7.4688
-7.46898
-7.46914
-7.46929
-7.46949
-7.46974
-7.47007
-7.4705
-7.47104
-7.47169
-7.47248
-7.4734
-7.47446
-7.47568
-7.47705
-7.4786
-7.48031
-7.4822
-7.48427
-7.48653
-7.48899
-7.49166
-7.49454
-7.49764
-7.50098
-7.50456
-7.5084
-7.51251
-7.5169
-7.5216
-7.5266
-7.53194
-7.53762
-7.54367
-7.5501
-7.55692
-7.56416
-7.57183
-7.57995
-7.58854
-7.59762
-7.6072
-7.61731
-7.62796
-7.63918
-7.65098
-7.66337
-7.67636
-7.68998
-7.70423
-7.71912
-7.73467