/*--------------------------------*- C++ -*----------------------------------*\
| =========                 |                                                 |
| \\      /  F ield         | OpenFOAM: The Open Source CFD Toolbox           |
|  \\    /   O peration     | Version:  1.4.2                                 |
|   \\  /    A nd           | Web:      http://www.openfoam.org               |
|    \\/     M anipulation  |                                                 |
\*---------------------------------------------------------------------------*/
FoamFile
{
    version     2.0;
    format      ascii;
    class       surfaceScalarField;
    object      phi;
    location    "900";
}
// * * * * * * * * * * * * * * * * * * * * * * * * * * * * * * * * * * * * * //

dimensions      [0 3 -1 0 0 0 0];

internalField   nonuniform List<scalar> 
24170
(
3.03918e-06
9.47103e-08
2.96659e-06
7.25931e-08
2.90197e-06
6.46222e-08
2.84073e-06
6.12331e-08
2.78297e-06
5.7767e-08
2.7289e-06
5.4068e-08
2.67845e-06
5.04452e-08
2.63148e-06
4.69779e-08
2.58782e-06
4.36589e-08
2.54734e-06
4.04809e-08
2.5099e-06
3.74391e-08
2.47537e-06
3.4523e-08
2.44366e-06
3.17115e-08
2.4147e-06
2.89657e-08
2.38849e-06
2.62089e-08
2.36522e-06
2.32643e-08
2.34543e-06
1.97881e-08
9.63586e-09
2.3358e-06
3.46199e-06
8.91627e-08
3.45386e-06
8.07239e-08
3.44442e-06
7.40678e-08
3.43379e-06
7.18601e-08
3.42224e-06
6.93164e-08
3.41016e-06
6.61421e-08
3.39779e-06
6.28186e-08
3.38526e-06
5.95066e-08
3.3727e-06
5.62195e-08
3.36022e-06
5.296e-08
3.34793e-06
4.97301e-08
3.33594e-06
4.65186e-08
3.32435e-06
4.3292e-08
3.31334e-06
3.99803e-08
3.30311e-06
3.64383e-08
3.29403e-06
3.23431e-08
3.28695e-06
2.68735e-08
1.73898e-08
3.27919e-06
3.82433e-06
7.70291e-08
3.8263e-06
7.87491e-08
3.8256e-06
7.47659e-08
3.82405e-06
7.34096e-08
3.82188e-06
7.14908e-08
3.81925e-06
6.87679e-08
3.81633e-06
6.57466e-08
3.81319e-06
6.26387e-08
3.80993e-06
5.94869e-08
3.80658e-06
5.63057e-08
3.80321e-06
5.30996e-08
3.79988e-06
4.98531e-08
3.79665e-06
4.6522e-08
3.79361e-06
4.3017e-08
3.79088e-06
3.91692e-08
3.78856e-06
3.46582e-08
3.78654e-06
2.88991e-08
2.08599e-08
3.78307e-06
4.2169e-06
6.46899e-08
4.22212e-06
7.35255e-08
4.2243e-06
7.25858e-08
4.22556e-06
7.21506e-08
4.22628e-06
7.07754e-08
4.22658e-06
6.846e-08
4.22662e-06
6.57112e-08
4.22648e-06
6.27745e-08
4.22624e-06
5.9726e-08
4.22595e-06
5.65965e-08
4.22566e-06
5.33969e-08
4.2254e-06
5.01129e-08
4.22522e-06
4.66983e-08
4.22517e-06
4.3064e-08
4.22529e-06
3.90563e-08
4.22551e-06
3.44284e-08
4.22556e-06
2.88557e-08
2.2059e-08
4.22436e-06
4.6487e-06
5.32999e-08
4.65545e-06
6.67762e-08
4.65932e-06
6.87138e-08
4.66212e-06
6.93492e-08
4.66432e-06
6.85738e-08
4.6661e-06
6.66855e-08
4.66758e-06
6.42273e-08
4.66888e-06
6.14785e-08
4.67005e-06
5.85474e-08
4.67117e-06
5.54837e-08
4.67226e-06
5.23072e-08
4.67336e-06
4.90093e-08
4.67451e-06
4.55504e-08
4.67572e-06
4.18544e-08
4.67697e-06
3.78029e-08
4.67816e-06
3.32366e-08
4.679e-06
2.80202e-08
2.22084e-08
4.67885e-06
5.12456e-06
4.3339e-08
5.132e-06
5.93322e-08
5.13708e-06
6.36361e-08
5.14108e-06
6.53445e-08
5.1444e-06
6.52512e-08
5.14723e-06
6.38574e-08
5.14972e-06
6.17401e-08
5.15198e-06
5.92177e-08
5.15409e-06
5.64363e-08
5.15611e-06
5.34689e-08
5.15807e-06
5.03485e-08
5.16e-06
4.70767e-08
5.16192e-06
4.3626e-08
5.16383e-06
3.9942e-08
5.16569e-06
3.59475e-08
5.16737e-06
3.15603e-08
5.16862e-06
2.6762e-08
2.17296e-08
5.1691e-06
5.64939e-06
3.49587e-08
5.65697e-06
5.17489e-08
5.66284e-06
5.77655e-08
5.66779e-06
6.03991e-08
5.67206e-06
6.0975e-08
5.67581e-06
6.01069e-08
5.67918e-06
5.83784e-08
5.68226e-06
5.61347e-08
5.68514e-06
5.35518e-08
5.68789e-06
5.07257e-08
5.69053e-06
4.7706e-08
5.6931e-06
4.45088e-08
5.6956e-06
4.11244e-08
5.69802e-06
3.75242e-08
5.70029e-06
3.36713e-08
5.70231e-06
2.95424e-08
5.70389e-06
2.5182e-08
2.07889e-08
5.70483e-06
4.4112e-06
2.98656e-08
4.41651e-06
4.64425e-08
4.42103e-06
5.32458e-08
4.42498e-06
5.64471e-08
4.42851e-06
5.74481e-08
4.43168e-06
5.6935e-08
4.43457e-06
5.549e-08
4.43724e-06
5.34638e-08
4.43975e-06
5.10474e-08
4.44212e-06
4.835e-08
4.44439e-06
4.54325e-08
4.44658e-06
4.23222e-08
4.44868e-06
3.9023e-08
4.45068e-06
3.55249e-08
4.45254e-06
3.18165e-08
4.45417e-06
2.79055e-08
4.4555e-06
2.386e-08
1.98678e-08
4.45642e-06
5.1446e-06
2.51251e-08
5.15008e-06
4.09615e-08
5.15508e-06
4.82476e-08
5.15964e-06
5.18864e-08
5.16381e-06
5.32711e-08
5.16764e-06
5.31052e-08
5.17118e-06
5.19533e-08
5.17448e-06
5.01655e-08
5.17758e-06
4.79427e-08
5.18053e-06
4.54051e-08
5.18334e-06
4.26242e-08
5.18602e-06
3.96389e-08
5.18858e-06
3.64674e-08
5.19098e-06
3.3118e-08
5.1932e-06
2.96019e-08
5.19515e-06
2.59502e-08
5.19677e-06
2.22414e-08
1.86452e-08
5.19799e-06
6.0001e-06
2.08146e-08
6.00563e-06
3.54394e-08
6.01099e-06
4.28803e-08
6.0161e-06
4.67826e-08
6.0209e-06
4.84687e-08
6.02539e-06
4.8614e-08
6.0296e-06
4.77452e-08
6.03356e-06
4.62033e-08
6.03731e-06
4.41933e-08
6.04087e-06
4.18431e-08
6.04426e-06
3.9233e-08
6.04749e-06
3.64131e-08
6.05054e-06
3.34152e-08
6.0534e-06
3.02641e-08
6.05601e-06
2.69886e-08
6.05832e-06
2.36346e-08
6.06028e-06
2.02811e-08
1.70743e-08
6.06186e-06
6.99811e-06
1.69712e-08
7.00354e-06
3.00041e-08
7.00917e-06
3.72569e-08
7.01472e-06
4.12285e-08
7.02009e-06
4.31007e-08
7.02521e-06
4.34925e-08
7.03008e-06
4.2876e-08
7.03471e-06
4.15725e-08
7.03912e-06
3.97844e-08
7.04332e-06
3.76429e-08
7.04732e-06
3.52351e-08
7.05111e-06
3.26202e-08
7.05469e-06
2.98414e-08
7.05801e-06
2.69364e-08
7.06106e-06
2.39458e-08
7.06377e-06
2.09222e-08
7.06611e-06
1.79384e-08
1.51152e-08
7.06807e-06
8.1624e-06
1.35815e-08
8.16765e-06
2.476e-08
8.17342e-06
3.14895e-08
8.17932e-06
3.53263e-08
8.18517e-06
3.7248e-08
8.19086e-06
3.77991e-08
8.19635e-06
3.73862e-08
8.20163e-06
3.62997e-08
8.20668e-06
3.47325e-08
8.21151e-06
3.28143e-08
8.21611e-06
3.06353e-08
8.22047e-06
2.82608e-08
8.22457e-06
2.57423e-08
8.22838e-06
2.31254e-08
8.23187e-06
2.04564e-08
8.235e-06
1.77881e-08
8.23776e-06
1.51833e-08
1.27384e-08
8.24013e-06
9.52072e-06
1.0592e-08
9.52571e-06
1.97706e-08
9.53152e-06
2.56738e-08
9.53768e-06
2.91688e-08
9.54393e-06
3.0994e-08
9.55013e-06
3.16033e-08
9.55618e-06
3.13326e-08
9.56205e-06
3.0432e-08
9.56771e-06
2.90771e-08
9.57313e-06
2.73907e-08
9.5783e-06
2.54617e-08
9.58321e-06
2.33578e-08
9.58782e-06
2.11338e-08
9.5921e-06
1.88383e-08
9.59604e-06
1.65181e-08
9.59961e-06
1.42214e-08
9.60279e-06
1.19995e-08
9.92774e-09
9.6056e-06
1.11054e-05
7.92508e-09
1.11101e-05
1.50481e-08
1.11159e-05
1.98737e-08
1.11222e-05
2.28255e-08
1.11288e-05
2.44059e-08
1.11355e-05
2.49662e-08
1.1142e-05
2.47693e-08
1.11484e-05
2.40181e-08
1.11547e-05
2.28626e-08
1.11606e-05
2.14127e-08
1.11663e-05
1.97508e-08
1.11718e-05
1.79419e-08
1.11769e-05
1.60394e-08
1.11816e-05
1.40901e-08
1.1186e-05
1.21369e-08
1.119e-05
1.02206e-08
1.11936e-05
8.38183e-09
6.67778e-09
1.11969e-05
1.29541e-05
5.49113e-09
1.29586e-05
1.05504e-08
1.29643e-05
1.41041e-08
1.29708e-05
1.6326e-08
1.29777e-05
1.75177e-08
1.29848e-05
1.79224e-08
1.29918e-05
1.77289e-08
1.29987e-05
1.7088e-08
1.30055e-05
1.61171e-08
1.3012e-05
1.49062e-08
1.30182e-05
1.35254e-08
1.30241e-05
1.20314e-08
1.30297e-05
1.04715e-08
1.30349e-05
8.88644e-09
1.30397e-05
7.31215e-09
1.30442e-05
5.78116e-09
1.30482e-05
4.32396e-09
2.98364e-09
1.30519e-05
1.51108e-05
3.19016e-09
1.51151e-05
6.17538e-09
1.51209e-05
8.30757e-09
1.51276e-05
9.6356e-09
1.51348e-05
1.03061e-08
1.51423e-05
1.04562e-08
1.51498e-05
1.01998e-08
1.51573e-05
9.63221e-09
1.51646e-05
8.83169e-09
1.51716e-05
7.86172e-09
1.51784e-05
6.77406e-09
1.51848e-05
5.61185e-09
1.51908e-05
4.41168e-09
1.51965e-05
3.20501e-09
1.52018e-05
2.01899e-09
1.52067e-05
8.77319e-10
1.52112e-05
-1.98239e-10
-1.17582e-09
1.52154e-05
1.76267e-05
8.97158e-10
1.76312e-05
1.73629e-09
1.76372e-05
2.31036e-09
1.76442e-05
2.60509e-09
1.76519e-05
2.64363e-09
1.76599e-05
2.45989e-09
1.7668e-05
2.09002e-09
1.7676e-05
1.56979e-09
1.76839e-05
9.32982e-10
1.76916e-05
2.10505e-10
1.76989e-05
-5.69705e-10
1.77059e-05
-1.38254e-09
1.77125e-05
-2.20561e-09
1.77188e-05
-3.01916e-09
1.77246e-05
-3.80604e-09
1.773e-05
-4.55136e-09
1.77351e-05
-5.24105e-09
-5.85227e-09
1.77397e-05
1.78284e-05
-1.28223e-09
1.78326e-05
-2.49804e-09
1.78383e-05
-3.42506e-09
1.78451e-05
-4.12992e-09
1.78524e-05
-4.70367e-09
1.78601e-05
-5.21106e-09
1.78679e-05
-5.69065e-09
1.78756e-05
-6.16433e-09
1.78832e-05
-6.64239e-09
1.78905e-05
-7.1267e-09
1.78976e-05
-7.61358e-09
1.79043e-05
-8.09627e-09
1.79106e-05
-8.56653e-09
1.79166e-05
-9.01585e-09
1.79223e-05
-9.4361e-09
1.79275e-05
-9.81974e-09
1.79325e-05
-1.01587e-08
-1.04372e-08
1.7937e-05
1.58834e-05
-3.33662e-09
1.58873e-05
-6.4291e-09
1.58926e-05
-8.66141e-09
1.58986e-05
-1.01927e-08
1.59052e-05
-1.12478e-08
1.59119e-05
-1.19885e-08
1.59188e-05
-1.25214e-08
1.59255e-05
-1.29202e-08
1.59321e-05
-1.3234e-08
1.59385e-05
-1.34927e-08
1.59446e-05
-1.37129e-08
1.59504e-05
-1.39031e-08
1.59559e-05
-1.40666e-08
1.59611e-05
-1.42035e-08
1.5966e-05
-1.43128e-08
1.59705e-05
-1.43921e-08
1.59748e-05
-1.44377e-08
-1.44388e-08
1.59788e-05
1.41508e-05
-5.47341e-09
1.41548e-05
-1.03916e-08
1.41599e-05
-1.37587e-08
1.41656e-05
-1.59344e-08
1.41717e-05
-1.73249e-08
1.41779e-05
-1.81898e-08
1.41841e-05
-1.86997e-08
1.41901e-05
-1.89762e-08
1.4196e-05
-1.91018e-08
1.42016e-05
-1.91293e-08
1.4207e-05
-1.90913e-08
1.42121e-05
-1.90079e-08
1.42169e-05
-1.88908e-08
1.42215e-05
-1.8747e-08
1.42257e-05
-1.85802e-08
1.42297e-05
-1.83922e-08
1.42335e-05
-1.81822e-08
-1.79432e-08
1.4237e-05
1.26074e-05
-7.88429e-09
1.26117e-05
-1.46375e-08
1.26169e-05
-1.89395e-08
1.26225e-05
-2.15521e-08
1.26283e-05
-2.31168e-08
1.26341e-05
-2.39839e-08
1.26397e-05
-2.43827e-08
1.26453e-05
-2.44785e-08
1.26505e-05
-2.43817e-08
1.26556e-05
-2.4162e-08
1.26603e-05
-2.38634e-08
1.26648e-05
-2.35138e-08
1.26691e-05
-2.31309e-08
1.26731e-05
-2.27258e-08
1.26768e-05
-2.23056e-08
1.26803e-05
-2.18749e-08
1.26835e-05
-2.14354e-08
-2.09834e-08
1.26866e-05
1.12327e-05
-1.07891e-08
1.12374e-05
-1.93709e-08
1.12428e-05
-2.4323e-08
1.12484e-05
-2.71271e-08
1.1254e-05
-2.86886e-08
1.12594e-05
-2.94242e-08
1.12646e-05
-2.96159e-08
1.12696e-05
-2.94679e-08
1.12744e-05
-2.91104e-08
1.12788e-05
-2.86238e-08
1.1283e-05
-2.80583e-08
1.12869e-05
-2.74461e-08
1.12906e-05
-2.68076e-08
1.12941e-05
-2.61559e-08
1.12972e-05
-2.54999e-08
1.13002e-05
-2.48459e-08
1.1303e-05
-2.41976e-08
-2.35545e-08
1.13056e-05
1.00083e-05
-1.44599e-08
1.00137e-05
-2.47399e-08
1.00193e-05
-2.99218e-08
1.00248e-05
-3.26293e-08
1.00301e-05
-3.39947e-08
1.00351e-05
-3.44579e-08
1.00398e-05
-3.4347e-08
1.00443e-05
-3.3896e-08
1.00484e-05
-3.32449e-08
1.00522e-05
-3.24769e-08
1.00558e-05
-3.16432e-08
1.00592e-05
-3.07762e-08
1.00622e-05
-2.98959e-08
1.00651e-05
-2.9015e-08
1.00677e-05
-2.81424e-08
1.00702e-05
-2.72847e-08
1.00724e-05
-2.64475e-08
-2.56344e-08
1.00745e-05
8.91786e-06
-1.92223e-08
8.92391e-06
-3.07925e-08
8.92961e-06
-3.56144e-08
8.93488e-06
-3.79055e-08
8.93977e-06
-3.88787e-08
8.94425e-06
-3.89383e-08
8.94834e-06
-3.84463e-08
8.9521e-06
-3.76518e-08
8.95555e-06
-3.66918e-08
8.95871e-06
-3.56436e-08
8.96162e-06
-3.45542e-08
8.9643e-06
-3.34521e-08
8.96676e-06
-3.23539e-08
8.96901e-06
-3.12698e-08
8.97108e-06
-3.02061e-08
8.97296e-06
-2.91687e-08
8.97468e-06
-2.81643e-08
-2.72017e-08
8.97624e-06
7.94686e-06
-2.54171e-08
7.95348e-06
-3.74074e-08
7.95898e-06
-4.11149e-08
7.96375e-06
-4.26749e-08
7.96796e-06
-4.309e-08
7.97167e-06
-4.26532e-08
7.97497e-06
-4.17404e-08
7.97791e-06
-4.05969e-08
7.98056e-06
-3.93426e-08
7.98296e-06
-3.80406e-08
7.98513e-06
-3.67277e-08
7.98711e-06
-3.54254e-08
7.9889e-06
-3.41453e-08
7.99052e-06
-3.28927e-08
7.99198e-06
-3.16702e-08
7.99329e-06
-3.04801e-08
7.99446e-06
-2.9329e-08
-2.82312e-08
7.99549e-06
7.08223e-06
-3.33136e-08
7.08902e-06
-4.41991e-08
7.09386e-06
-4.5954e-08
7.09773e-06
-4.65465e-08
7.10096e-06
-4.63197e-08
7.10367e-06
-4.53671e-08
7.10598e-06
-4.40521e-08
7.10798e-06
-4.25969e-08
7.10973e-06
-4.10923e-08
7.11127e-06
-3.95806e-08
7.11263e-06
-3.80868e-08
7.11383e-06
-3.66249e-08
7.11489e-06
-3.5201e-08
7.11581e-06
-3.38158e-08
7.11661e-06
-3.24669e-08
7.11728e-06
-3.11505e-08
7.11782e-06
-2.98685e-08
-2.86338e-08
7.11822e-06
6.31217e-06
-4.29758e-08
6.31832e-06
-5.03475e-08
6.32184e-06
-4.94687e-08
6.32435e-06
-4.90565e-08
6.32625e-06
-4.82196e-08
6.32768e-06
-4.67974e-08
6.32876e-06
-4.51319e-08
6.32957e-06
-4.34144e-08
6.33019e-06
-4.17047e-08
6.33063e-06
-4.00262e-08
6.33094e-06
-3.83931e-08
6.33113e-06
-3.68127e-08
6.33121e-06
-3.52858e-08
6.3312e-06
-3.38086e-08
6.33111e-06
-3.23728e-08
6.33092e-06
-3.09651e-08
6.33063e-06
-2.95725e-08
-2.8183e-08
6.33018e-06
5.62586e-06
-5.39342e-08
5.62969e-06
-5.41762e-08
5.63084e-06
-5.06263e-08
5.63117e-06
-4.93808e-08
5.63091e-06
-4.79655e-08
5.63023e-06
-4.61138e-08
5.62925e-06
-4.41551e-08
5.62807e-06
-4.2235e-08
5.62675e-06
-4.03787e-08
5.62531e-06
-3.85906e-08
5.62379e-06
-3.68741e-08
5.62221e-06
-3.52297e-08
5.62058e-06
-3.3654e-08
5.61891e-06
-3.21396e-08
5.61721e-06
-3.06735e-08
5.61547e-06
-2.92314e-08
5.61367e-06
-2.77724e-08
-2.61744e-08
5.61167e-06
5.01053e-06
-6.21604e-08
5.00697e-06
-5.0611e-08
5.00192e-06
-4.55816e-08
4.99617e-06
-4.36254e-08
4.98988e-06
-4.16748e-08
4.98331e-06
-3.95502e-08
4.97663e-06
-3.74743e-08
4.96991e-06
-3.55156e-08
4.9632e-06
-3.36685e-08
4.95653e-06
-3.19225e-08
4.94993e-06
-3.02713e-08
4.94341e-06
-2.87094e-08
4.93699e-06
-2.72302e-08
4.93067e-06
-2.58257e-08
4.92448e-06
-2.44841e-08
4.91843e-06
-2.31803e-08
4.91251e-06
-2.18558e-08
-2.00701e-08
4.90641e-06
4.39439e-06
4.34378e-06
4.2982e-06
4.25457e-06
4.2129e-06
4.17335e-06
4.13587e-06
4.10036e-06
4.06669e-06
4.03476e-06
4.00449e-06
3.97578e-06
3.94855e-06
3.92273e-06
3.89824e-06
3.87506e-06
3.85321e-06
3.83314e-06
8.4781e-10
-8.47812e-10
3.18227e-09
-2.33443e-09
6.56824e-09
-3.38596e-09
1.05014e-08
-3.93337e-09
1.45659e-08
-4.06461e-09
1.84591e-08
-3.89357e-09
2.19791e-08
-3.52038e-09
2.50018e-08
-3.02307e-09
2.74621e-08
-2.4606e-09
2.934e-08
-1.8781e-09
3.06492e-08
-1.30927e-09
3.14248e-08
-7.75274e-10
3.17088e-08
-2.83539e-10
3.15449e-08
1.64727e-10
3.0977e-08
5.68928e-10
3.00432e-08
9.34957e-10
2.87691e-08
1.2752e-09
2.71682e-08
1.602e-09
2.52418e-08
1.9272e-09
2.29791e-08
2.26334e-09
2.03357e-08
2.6436e-09
1.72485e-08
3.08696e-09
1.36317e-08
3.61622e-09
9.36897e-09
4.26164e-09
4.33131e-09
5.03625e-09
-1.59995e-09
5.92957e-09
-8.52672e-09
6.92497e-09
-1.65167e-08
7.98821e-09
-2.56206e-08
9.10247e-09
-3.58746e-08
1.0253e-08
-4.7294e-08
1.14188e-08
-5.98736e-08
1.25796e-08
-7.35915e-08
1.37184e-08
-8.84123e-08
1.48217e-08
-1.04291e-07
1.58798e-08
-1.21176e-07
1.68863e-08
-1.39012e-07
1.78374e-08
-1.57744e-07
1.87319e-08
-1.77313e-07
1.957e-08
-1.97667e-07
2.03536e-08
-2.18753e-07
2.10852e-08
-2.40522e-07
2.17684e-08
-2.6293e-07
2.2407e-08
-2.85936e-07
2.3005e-08
-3.09504e-07
2.35666e-08
-3.33601e-07
2.40958e-08
-3.58198e-07
2.45964e-08
-3.83271e-07
2.50721e-08
-4.08798e-07
2.55262e-08
-4.3476e-07
2.59615e-08
-4.61141e-07
2.63809e-08
-4.87928e-07
2.67866e-08
-5.15109e-07
2.71807e-08
-5.42673e-07
2.75649e-08
-5.70613e-07
2.79405e-08
-5.98921e-07
2.83085e-08
-6.27589e-07
2.86696e-08
-6.56613e-07
2.90241e-08
-6.85984e-07
2.93722e-08
-7.15697e-07
2.97137e-08
-7.45745e-07
3.00483e-08
-7.76121e-07
3.03753e-08
-8.06814e-07
3.0694e-08
-8.37817e-07
3.10033e-08
-8.69118e-07
3.13017e-08
-9.00704e-07
3.15873e-08
-9.32561e-07
3.18579e-08
-9.64671e-07
3.21108e-08
-9.97014e-07
3.23429e-08
-1.02957e-06
3.25511e-08
-1.0623e-06
3.27321e-08
-1.09518e-06
3.28832e-08
-1.12819e-06
3.30035e-08
-1.16128e-06
3.30966e-08
-1.19446e-06
3.31741e-08
-1.22771e-06
3.32576e-08
-1.26111e-06
3.33944e-08
-1.29486e-06
3.37546e-08
-1.32888e-06
3.40121e-08
-1.36289e-06
3.4013e-08
-1.39693e-06
3.40437e-08
-1.43102e-06
3.40835e-08
-1.46513e-06
3.4114e-08
-1.49926e-06
3.41249e-08
-1.53337e-06
3.41105e-08
-1.56743e-06
3.40676e-08
-1.60143e-06
3.39942e-08
-1.63532e-06
3.38891e-08
-1.66907e-06
3.37513e-08
-1.70265e-06
3.35798e-08
-1.73602e-06
3.33737e-08
-1.76915e-06
3.31324e-08
-1.80201e-06
3.28554e-08
-1.83455e-06
3.25427e-08
-1.86674e-06
3.21942e-08
-1.89855e-06
3.18097e-08
-1.92994e-06
3.13888e-08
-1.96087e-06
3.0931e-08
-1.99131e-06
3.04355e-08
-2.02121e-06
2.99014e-08
-2.05054e-06
2.93277e-08
-2.07925e-06
2.87132e-08
-2.10731e-06
2.8056e-08
-2.13466e-06
2.73539e-08
-2.16127e-06
2.66037e-08
-2.18707e-06
2.5802e-08
-2.21201e-06
2.49449e-08
-2.23604e-06
2.40282e-08
-2.25909e-06
2.30481e-08
-2.28109e-06
2.20005e-08
-2.30197e-06
2.08818e-08
-2.32166e-06
1.9688e-08
-2.34007e-06
1.84158e-08
-2.35714e-06
1.70632e-08
-2.37277e-06
1.56301e-08
-2.38689e-06
1.41185e-08
-2.39942e-06
1.25317e-08
-2.41029e-06
1.08743e-08
-2.41944e-06
9.1519e-09
-2.42681e-06
7.37208e-09
-2.43236e-06
5.54414e-09
-2.43604e-06
3.67835e-09
-2.43782e-06
1.78304e-09
-2.43768e-06
-1.39761e-10
-2.43561e-06
-2.07023e-09
-2.43162e-06
-3.98204e-09
-2.42576e-06
-5.86803e-09
-2.41803e-06
-7.72371e-09
-2.40849e-06
-9.54706e-09
-2.39715e-06
-1.1337e-08
-2.38406e-06
-1.30917e-08
-2.36925e-06
-1.4808e-08
-2.35277e-06
-1.64833e-08
-2.33465e-06
-1.8116e-08
-2.31495e-06
-1.97046e-08
-2.2937e-06
-2.12464e-08
-2.27096e-06
-2.27386e-08
-2.24678e-06
-2.41797e-08
-2.22121e-06
-2.55696e-08
-2.1943e-06
-2.69075e-08
-2.16611e-06
-2.81915e-08
-2.13669e-06
-2.94212e-08
-2.10609e-06
-3.05977e-08
-2.07437e-06
-3.1722e-08
-2.04158e-06
-3.27945e-08
-2.00776e-06
-3.38165e-08
-1.97297e-06
-3.47893e-08
-1.93726e-06
-3.57152e-08
-1.90066e-06
-3.65968e-08
-1.86323e-06
-3.7437e-08
-1.82499e-06
-3.82395e-08
-1.78597e-06
-3.90118e-08
-1.74621e-06
-3.97615e-08
-1.70572e-06
-4.04908e-08
-1.66452e-06
-4.12033e-08
-1.62261e-06
-4.1909e-08
-1.57999e-06
-4.26152e-08
-1.53666e-06
-4.33245e-08
-1.49262e-06
-4.40471e-08
-1.44783e-06
-4.47913e-08
-1.40226e-06
-4.55654e-08
-1.35587e-06
-4.63845e-08
-1.30862e-06
-4.7253e-08
-1.26044e-06
-4.81813e-08
-1.21126e-06
-4.9176e-08
-1.16101e-06
-5.02569e-08
-1.10957e-06
-5.14363e-08
-1.05685e-06
-5.27139e-08
-1.00275e-06
-5.40957e-08
-9.47153e-07
-5.56018e-08
-8.8993e-07
-5.72188e-08
-8.31021e-07
-5.89086e-08
-7.7035e-07
-6.06722e-08
-7.07946e-07
-6.24051e-08
-6.43873e-07
-6.4074e-08
-5.78458e-07
-6.54177e-08
-5.1178e-07
-6.66841e-08
-4.45288e-07
-6.6493e-08
-3.75341e-07
-6.99491e-08
-6.73111e-08
-3.08031e-07
2.20724e-09
-3.05467e-09
6.04786e-09
-6.17404e-09
1.02747e-08
-7.61198e-09
1.43169e-08
-7.97531e-09
1.7925e-08
-7.67258e-09
2.09874e-08
-6.95605e-09
2.34581e-08
-5.99112e-09
2.53251e-08
-4.8901e-09
2.65937e-08
-3.72903e-09
2.72726e-08
-2.55662e-09
2.73647e-08
-1.40072e-09
2.68606e-08
-2.70294e-10
2.5759e-08
8.19293e-10
2.40699e-08
1.85524e-09
2.18006e-08
2.8397e-09
1.89444e-08
3.79266e-09
1.54829e-08
4.73799e-09
1.13899e-08
5.69604e-09
6.62099e-09
6.69657e-09
1.11377e-09
7.7705e-09
-5.18483e-09
8.94156e-09
-1.23197e-08
1.02207e-08
-2.03398e-08
1.16347e-08
-2.92778e-08
1.31977e-08
-3.91464e-08
1.49026e-08
-4.99445e-08
1.67255e-08
-6.16552e-08
1.86338e-08
-7.42656e-08
2.05972e-08
-8.77555e-08
2.25916e-08
-1.02095e-07
2.45921e-08
-1.1725e-07
2.65748e-08
-1.33188e-07
2.85178e-08
-1.49871e-07
3.04032e-08
-1.67264e-07
3.22165e-08
-1.85331e-07
3.39477e-08
-2.04034e-07
3.55905e-08
-2.23337e-07
3.71416e-08
-2.43206e-07
3.86008e-08
-2.63607e-07
3.99703e-08
-2.84508e-07
4.12538e-08
-3.0588e-07
4.24565e-08
-3.27698e-07
4.35845e-08
-3.49937e-07
4.46445e-08
-3.72577e-07
4.56435e-08
-3.95599e-07
4.65883e-08
-4.1899e-07
4.74856e-08
-4.42736e-07
4.83417e-08
-4.66828e-07
4.91625e-08
-4.91256e-07
4.99533e-08
-5.16014e-07
5.07188e-08
-5.41096e-07
5.14634e-08
-5.665e-07
5.21905e-08
-5.92222e-07
5.29032e-08
-6.1826e-07
5.36039e-08
-6.44613e-07
5.42945e-08
-6.71279e-07
5.49762e-08
-6.98258e-07
5.56498e-08
-7.25549e-07
5.63157e-08
-7.5315e-07
5.69738e-08
-7.81059e-07
5.76236e-08
-8.09275e-07
5.82642e-08
-8.37794e-07
5.88946e-08
-8.66612e-07
5.95132e-08
-8.95725e-07
6.0118e-08
-9.25129e-07
6.07069e-08
-9.54818e-07
6.12774e-08
-9.84786e-07
6.18266e-08
-1.01503e-06
6.23517e-08
-1.04553e-06
6.28499e-08
-1.0763e-06
6.33187e-08
-1.10733e-06
6.37558e-08
-1.1386e-06
6.41596e-08
-1.17013e-06
6.45298e-08
-1.2019e-06
6.48675e-08
-1.2339e-06
6.51761e-08
-1.26611e-06
6.54634e-08
-1.29847e-06
6.5753e-08
-1.33079e-06
6.60771e-08
-1.36313e-06
6.63479e-08
-1.39562e-06
6.65091e-08
-1.42821e-06
6.66281e-08
-1.46084e-06
6.67135e-08
-1.49348e-06
6.67585e-08
-1.52611e-06
6.67559e-08
-1.55871e-06
6.67003e-08
-1.59123e-06
6.65874e-08
-1.62364e-06
6.64141e-08
-1.65593e-06
6.61779e-08
-1.68806e-06
6.58769e-08
-1.71999e-06
6.55091e-08
-1.75168e-06
6.50734e-08
-1.78312e-06
6.45685e-08
-1.81426e-06
6.39938e-08
-1.84506e-06
6.33488e-08
-1.8755e-06
6.26329e-08
-1.90554e-06
6.18458e-08
-1.93514e-06
6.09864e-08
-1.96426e-06
6.00538e-08
-1.99287e-06
5.90469e-08
-2.02093e-06
5.79639e-08
-2.04841e-06
5.68027e-08
-2.07526e-06
5.55606e-08
-2.10143e-06
5.42336e-08
-2.1269e-06
5.28171e-08
-2.1516e-06
5.13054e-08
-2.17549e-06
4.96921e-08
-2.19852e-06
4.79698e-08
-2.22062e-06
4.61309e-08
-2.24174e-06
4.41675e-08
-2.26181e-06
4.20717e-08
-2.28076e-06
3.98355e-08
-2.29852e-06
3.74518e-08
-2.31502e-06
3.49148e-08
-2.33018e-06
3.22211e-08
-2.34392e-06
2.93703e-08
-2.35617e-06
2.63653e-08
-2.36684e-06
2.32117e-08
-2.37589e-06
1.99184e-08
-2.38323e-06
1.64974e-08
-2.38883e-06
1.29641e-08
-2.39262e-06
9.33599e-09
-2.39457e-06
5.63063e-09
-2.39465e-06
1.86277e-09
-2.39284e-06
-1.94838e-09
-2.38915e-06
-5.7588e-09
-2.3836e-06
-9.52872e-09
-2.37622e-06
-1.32466e-08
-2.36704e-06
-1.6906e-08
-2.35609e-06
-2.05026e-08
-2.34339e-06
-2.40326e-08
-2.32899e-06
-2.74918e-08
-2.31292e-06
-3.08758e-08
-2.29523e-06
-3.41806e-08
-2.27594e-06
-3.74026e-08
-2.25511e-06
-4.05374e-08
-2.23277e-06
-4.35804e-08
-2.20898e-06
-4.65282e-08
-2.18379e-06
-4.93783e-08
-2.15723e-06
-5.21287e-08
-2.12936e-06
-5.47775e-08
-2.10023e-06
-5.73234e-08
-2.06988e-06
-5.97668e-08
-2.03837e-06
-6.2109e-08
-2.00574e-06
-6.43515e-08
-1.97204e-06
-6.64966e-08
-1.9373e-06
-6.8548e-08
-1.90158e-06
-7.05091e-08
-1.86491e-06
-7.2384e-08
-1.82733e-06
-7.41786e-08
-1.78887e-06
-7.59005e-08
-1.74955e-06
-7.75583e-08
-1.7094e-06
-7.91619e-08
-1.66844e-06
-8.07243e-08
-1.62667e-06
-8.22588e-08
-1.58409e-06
-8.37776e-08
-1.54072e-06
-8.52907e-08
-1.49652e-06
-8.68091e-08
-1.4515e-06
-8.8346e-08
-1.40563e-06
-8.99192e-08
-1.35887e-06
-9.15475e-08
-1.31119e-06
-9.32487e-08
-1.26253e-06
-9.5044e-08
-1.21284e-06
-9.69465e-08
-1.16205e-06
-9.89703e-08
-1.11009e-06
-1.01139e-07
-1.05687e-06
-1.03479e-07
-1.00229e-06
-1.06013e-07
-9.46259e-07
-1.08745e-07
-8.88679e-07
-1.11678e-07
-8.29436e-07
-1.14846e-07
-7.68431e-07
-1.18227e-07
-7.05593e-07
-1.21748e-07
-6.4086e-07
-1.25405e-07
-5.74235e-07
-1.29027e-07
-5.05781e-07
-1.32526e-07
-4.35674e-07
-1.35523e-07
-3.64211e-07
-1.3814e-07
-2.91608e-07
-1.39096e-07
-2.18668e-07
-1.42887e-07
-1.40455e-07
-1.45524e-07
2.69573e-09
-5.75041e-09
6.40533e-09
-9.88294e-09
9.81243e-09
-1.10187e-08
1.26315e-08
-1.07943e-08
1.4828e-08
-9.86918e-09
1.64153e-08
-8.54349e-09
1.74056e-08
-6.98159e-09
1.78024e-08
-5.28712e-09
1.75978e-08
-3.52454e-09
1.67716e-08
-1.73035e-09
1.52928e-08
7.82665e-11
1.315e-08
1.87295e-09
1.03502e-08
3.61968e-09
6.88534e-09
5.32076e-09
2.73466e-09
6.99113e-09
-2.1247e-09
8.65276e-09
-7.71033e-09
1.03243e-08
-1.40425e-08
1.20287e-08
-2.11459e-08
1.38002e-08
-2.90403e-08
1.56649e-08
-3.77378e-08
1.76386e-08
-4.72483e-08
1.97305e-08
-5.75611e-08
2.19465e-08
-6.86474e-08
2.4283e-08
-8.04707e-08
2.67249e-08
-9.29947e-08
2.92485e-08
-1.06187e-07
3.18256e-08
-1.20019e-07
3.44282e-08
-1.34459e-07
3.70307e-08
-1.49476e-07
3.96091e-08
-1.65042e-07
4.21411e-08
-1.81132e-07
4.46076e-08
-1.97721e-07
4.69928e-08
-2.14789e-07
4.92845e-08
-2.32315e-07
5.14743e-08
-2.50281e-07
5.35573e-08
-2.68671e-07
5.55319e-08
-2.8747e-07
5.73992e-08
-3.06662e-07
5.91625e-08
-3.26236e-07
6.08272e-08
-3.4618e-07
6.23999e-08
-3.66484e-07
6.3888e-08
-3.8714e-07
6.52995e-08
-4.0814e-07
6.66427e-08
-4.29478e-07
6.79257e-08
-4.51149e-07
6.91561e-08
-4.73149e-07
7.03414e-08
-4.95475e-07
7.14882e-08
-5.18125e-07
7.26026e-08
-5.41097e-07
7.36901e-08
-5.64389e-07
7.47553e-08
-5.88001e-07
7.58023e-08
-6.11932e-07
7.68343e-08
-6.36181e-07
7.78539e-08
-6.60749e-07
7.88631e-08
-6.85635e-07
7.98631e-08
-7.10839e-07
8.08546e-08
-7.36361e-07
8.18376e-08
-7.62198e-07
8.28117e-08
-7.88351e-07
8.3776e-08
-8.14815e-07
8.47292e-08
-8.4159e-07
8.56695e-08
-8.68671e-07
8.65947e-08
-8.96054e-07
8.75022e-08
-9.23736e-07
8.83892e-08
-9.5171e-07
8.92523e-08
-9.79971e-07
9.00883e-08
-1.00851e-06
9.08937e-08
-1.03733e-06
9.16653e-08
-1.06641e-06
9.24e-08
-1.09575e-06
9.30953e-08
-1.12534e-06
9.37493e-08
-1.15517e-06
9.43608e-08
-1.18523e-06
9.49291e-08
-1.21551e-06
9.54542e-08
-1.24599e-06
9.5937e-08
-1.27661e-06
9.63812e-08
-1.30732e-06
9.67836e-08
-1.33809e-06
9.71142e-08
-1.36894e-06
9.7363e-08
-1.39986e-06
9.75464e-08
-1.43081e-06
9.76664e-08
-1.46177e-06
9.77176e-08
-1.49271e-06
9.76937e-08
-1.5236e-06
9.75886e-08
-1.55441e-06
9.73974e-08
-1.58511e-06
9.7116e-08
-1.61567e-06
9.67412e-08
-1.64606e-06
9.62699e-08
-1.67626e-06
9.56999e-08
-1.70621e-06
9.50293e-08
-1.7359e-06
9.42565e-08
-1.76529e-06
9.33806e-08
-1.79434e-06
9.24006e-08
-1.82302e-06
9.13158e-08
-1.8513e-06
9.01253e-08
-1.87914e-06
8.88281e-08
-1.90651e-06
8.74228e-08
-1.93337e-06
8.59077e-08
-1.95969e-06
8.42803e-08
-1.98542e-06
8.25376e-08
-2.01054e-06
8.06752e-08
-2.03499e-06
7.86876e-08
-2.05874e-06
7.65681e-08
-2.08175e-06
7.43084e-08
-2.10395e-06
7.18991e-08
-2.12531e-06
6.93297e-08
-2.14577e-06
6.6589e-08
-2.16527e-06
6.36653e-08
-2.18374e-06
6.05464e-08
-2.20113e-06
5.72208e-08
-2.21735e-06
5.36779e-08
-2.23235e-06
4.99094e-08
-2.24604e-06
4.59101e-08
-2.25835e-06
4.1679e-08
-2.2692e-06
3.72196e-08
-2.27853e-06
3.254e-08
-2.28626e-06
2.76534e-08
-2.29234e-06
2.25776e-08
-2.29671e-06
1.73354e-08
-2.29933e-06
1.19523e-08
-2.30015e-06
6.45382e-09
-2.29915e-06
8.60642e-10
-2.29632e-06
-4.77953e-09
-2.29168e-06
-1.0399e-08
-2.28525e-06
-1.59586e-08
-2.27705e-06
-2.14417e-08
-2.26712e-06
-2.68384e-08
-2.25548e-06
-3.21421e-08
-2.24217e-06
-3.73468e-08
-2.22721e-06
-4.24466e-08
-2.21065e-06
-4.74357e-08
-2.19252e-06
-5.23086e-08
-2.17287e-06
-5.70599e-08
-2.15172e-06
-6.16834e-08
-2.12913e-06
-6.61732e-08
-2.10513e-06
-7.05248e-08
-2.07977e-06
-7.47347e-08
-2.0531e-06
-7.88e-08
-2.02516e-06
-8.27184e-08
-1.996e-06
-8.64892e-08
-1.96565e-06
-9.01132e-08
-1.93417e-06
-9.35924e-08
-1.90159e-06
-9.69301e-08
-1.86796e-06
-1.00131e-07
-1.8333e-06
-1.032e-07
-1.79767e-06
-1.06145e-07
-1.76108e-06
-1.0897e-07
-1.72357e-06
-1.11686e-07
-1.68517e-06
-1.14305e-07
-1.64589e-06
-1.16841e-07
-1.60574e-06
-1.19308e-07
-1.56474e-06
-1.21725e-07
-1.52288e-06
-1.24113e-07
-1.48017e-06
-1.26491e-07
-1.43659e-06
-1.28876e-07
-1.39211e-06
-1.31282e-07
-1.34673e-06
-1.33731e-07
-1.3004e-06
-1.36247e-07
-1.25309e-06
-1.38857e-07
-1.20475e-06
-1.41591e-07
-1.15531e-06
-1.44476e-07
-1.10473e-06
-1.47534e-07
-1.05291e-06
-1.50783e-07
-9.99799e-07
-1.54254e-07
-9.45292e-07
-1.57985e-07
-8.89293e-07
-1.62011e-07
-8.31705e-07
-1.66333e-07
-7.72432e-07
-1.70951e-07
-7.11365e-07
-1.75914e-07
-6.48399e-07
-1.81192e-07
-5.83461e-07
-1.86686e-07
-5.16474e-07
-1.92391e-07
-4.47413e-07
-1.98088e-07
-3.763e-07
-2.0364e-07
-3.03219e-07
-2.08604e-07
-2.28357e-07
-2.13002e-07
-1.51713e-07
-2.1574e-07
-7.40433e-08
-2.20556e-07
-2.20321e-07
5.82413e-09
2.44128e-09
-8.191e-09
5.00125e-09
-1.24411e-08
6.89178e-09
-1.29084e-08
8.1209e-09
-1.2023e-08
8.72562e-09
-1.04737e-08
8.72154e-09
-8.53936e-09
8.10814e-09
-6.36822e-09
6.87763e-09
-4.05667e-09
5.00742e-09
-1.65436e-09
2.48054e-09
7.96583e-10
-6.92261e-10
3.2512e-09
-4.49377e-09
5.67474e-09
-8.92715e-09
8.05348e-09
-1.40045e-08
1.03985e-08
-1.97396e-08
1.27268e-08
-2.61447e-08
1.50583e-08
-3.32342e-08
1.74141e-08
-4.10217e-08
1.98164e-08
-4.95089e-08
2.22874e-08
-5.86877e-08
2.48435e-08
-6.85432e-08
2.74937e-08
-7.90535e-08
3.02401e-08
-9.01867e-08
3.30791e-08
-1.01905e-07
3.60002e-08
-1.14168e-07
3.89873e-08
-1.2694e-07
4.20194e-08
-1.40188e-07
4.50729e-08
-1.53884e-07
4.81243e-08
-1.68005e-07
5.11509e-08
-1.82528e-07
5.4132e-08
-1.97436e-07
5.7049e-08
-2.12714e-07
5.98861e-08
-2.28352e-07
6.26305e-08
-2.4434e-07
6.52726e-08
-2.60671e-07
6.78062e-08
-2.77342e-07
7.0228e-08
-2.94348e-07
7.25377e-08
-3.11686e-07
7.47373e-08
-3.29355e-07
7.68309e-08
-3.47352e-07
7.88244e-08
-3.65678e-07
8.07245e-08
-3.84329e-07
8.25391e-08
-4.03306e-07
8.42763e-08
-4.22608e-07
8.59443e-08
-4.42234e-07
8.75514e-08
-4.62184e-07
8.91053e-08
-4.82456e-07
9.06133e-08
-5.0305e-07
9.20823e-08
-5.23967e-07
9.35183e-08
-5.45204e-07
9.49267e-08
-5.66761e-07
9.63123e-08
-5.88638e-07
9.76791e-08
-6.10834e-07
9.90303e-08
-6.33348e-07
1.00369e-07
-6.5618e-07
1.01696e-07
-6.79329e-07
1.03013e-07
-7.02794e-07
1.0432e-07
-7.26574e-07
1.05618e-07
-7.50667e-07
1.06905e-07
-7.75072e-07
1.08181e-07
-7.99786e-07
1.09443e-07
-8.24806e-07
1.1069e-07
-8.50128e-07
1.11918e-07
-8.7575e-07
1.13124e-07
-9.01665e-07
1.14305e-07
-9.2787e-07
1.15458e-07
-9.54358e-07
1.16577e-07
-9.81124e-07
1.17659e-07
-1.00816e-06
1.187e-07
-1.03546e-06
1.19696e-07
-1.063e-06
1.20643e-07
-1.09079e-06
1.21538e-07
-1.11881e-06
1.22378e-07
-1.14704e-06
1.2316e-07
-1.17547e-06
1.2388e-07
-1.20406e-06
1.24535e-07
-1.2328e-06
1.2512e-07
-1.26165e-06
1.2563e-07
-1.29059e-06
1.2605e-07
-1.3196e-06
1.26377e-07
-1.34867e-06
1.26616e-07
-1.37777e-06
1.26764e-07
-1.40687e-06
1.26815e-07
-1.43593e-06
1.26763e-07
-1.46495e-06
1.26601e-07
-1.49387e-06
1.26324e-07
-1.52269e-06
1.25928e-07
-1.55135e-06
1.25408e-07
-1.57984e-06
1.24761e-07
-1.60813e-06
1.23984e-07
-1.63617e-06
1.23075e-07
-1.66395e-06
1.22032e-07
-1.69142e-06
1.20854e-07
-1.71856e-06
1.1954e-07
-1.74533e-06
1.18088e-07
-1.77171e-06
1.16498e-07
-1.79764e-06
1.14768e-07
-1.82312e-06
1.12897e-07
-1.84809e-06
1.10883e-07
-1.87254e-06
1.08722e-07
-1.89641e-06
1.06412e-07
-1.91968e-06
1.03945e-07
-1.94231e-06
1.01316e-07
-1.96425e-06
9.85146e-08
-1.98548e-06
9.55311e-08
-2.00593e-06
9.23531e-08
-2.02557e-06
8.89667e-08
-2.04434e-06
8.53571e-08
-2.06218e-06
8.15086e-08
-2.07904e-06
7.7405e-08
-2.09485e-06
7.30307e-08
-2.10954e-06