/*--------------------------------*- C++ -*----------------------------------*\
| =========                 |                                                 |
| \\      /  F ield         | OpenFOAM: The Open Source CFD Toolbox           |
|  \\    /   O peration     | Version:  1.4.2                                 |
|   \\  /    A nd           | Web:      http://www.openfoam.org               |
|    \\/     M anipulation  |                                                 |
\*---------------------------------------------------------------------------*/
FoamFile
{
    version     2.0;
    format      ascii;
    class       volVectorField;
    object      U;
    location    "900";
}
// * * * * * * * * * * * * * * * * * * * * * * * * * * * * * * * * * * * * * //

dimensions      [0 1 -1 0 0 0 0];

internalField   nonuniform List<vector> 
12225
(
(9.77631 0.0380805 0)
(9.58165 0.0388038 0)
(9.36738 0.0370215 0)
(9.16174 0.0361563 0)
(8.97093 0.0352102 0)
(8.79278 0.0340378 0)
(8.62611 0.0327673 0)
(8.47064 0.0314623 0)
(8.32602 0.0301366 0)
(8.19179 0.0287954 0)
(8.06748 0.0274422 0)
(7.95268 0.0260772 0)
(7.847 0.0246931 0)
(7.75016 0.0232703 0)
(7.66205 0.0217624 0)
(7.58286 0.0200495 0)
(7.5143 0.0178717 0)
(7.44969 0.00472721 0)
(10.004 0.0585746 0)
(10.0077 0.0555248 0)
(9.98308 0.051857 0)
(9.95111 0.0514236 0)
(9.91831 0.0511415 0)
(9.88421 0.0504784 0)
(9.84879 0.0496384 0)
(9.81265 0.0487123 0)
(9.77625 0.0476993 0)
(9.73995 0.0465905 0)
(9.70404 0.0453794 0)
(9.66883 0.0440515 0)
(9.63463 0.0425744 0)
(9.60182 0.0408811 0)
(9.57091 0.0388284 0)
(9.54267 0.0360785 0)
(9.51864 0.0317955 0)
(9.49685 0.0221459 0)
(10.0174 0.0524279 0)
(10.037 0.0526689 0)
(10.0383 0.0512384 0)
(10.0338 0.0521801 0)
(10.0285 0.0527992 0)
(10.0223 0.0527791 0)
(10.015 0.0524512 0)
(10.0069 0.0519592 0)
(9.9985 0.0513206 0)
(9.9898 0.0505331 0)
(9.98096 0.0495887 0)
(9.97213 0.0484622 0)
(9.96347 0.047098 0)
(9.95519 0.0453868 0)
(9.94755 0.0431112 0)
(9.94085 0.0398177 0)
(9.93537 0.0344843 0)
(9.92779 0.0245795 0)
(10.0158 0.0449537 0)
(10.0376 0.0501273 0)
(10.0459 0.0506552 0)
(10.0489 0.0521603 0)
(10.051 0.0531281 0)
(10.0522 0.0534139 0)
(10.0526 0.0533337 0)
(10.0524 0.0530341 0)
(10.0519 0.0525446 0)
(10.0513 0.0518684 0)
(10.0505 0.0509961 0)
(10.0499 0.0498953 0)
(10.0493 0.0484979 0)
(10.049 0.0466777 0)
(10.0491 0.0442066 0)
(10.0495 0.0406784 0)
(10.0501 0.0354308 0)
(10.0487 0.0275608 0)
(10.0125 0.0370823 0)
(10.0331 0.0461487 0)
(10.0446 0.0485749 0)
(10.0509 0.0506843 0)
(10.0561 0.051982 0)
(10.0603 0.0525062 0)
(10.0638 0.0525849 0)
(10.0667 0.0523821 0)
(10.0694 0.0519442 0)
(10.0718 0.0512813 0)
(10.0742 0.0503847 0)
(10.0765 0.0492198 0)
(10.0789 0.0477163 0)
(10.0815 0.0457508 0)
(10.0841 0.0431227 0)
(10.0868 0.039527 0)
(10.0892 0.0345977 0)
(10.09 0.0281157 0)
(10.0094 0.0302345 0)
(10.0273 0.0413831 0)
(10.0399 0.0454312 0)
(10.0483 0.0482138 0)
(10.0552 0.0499035 0)
(10.0612 0.0507027 0)
(10.0663 0.0509576 0)
(10.0709 0.0508531 0)
(10.0752 0.0504592 0)
(10.0792 0.0498004 0)
(10.0831 0.0488738 0)
(10.0869 0.0476484 0)
(10.0906 0.0460591 0)
(10.0944 0.0439988 0)
(10.0981 0.0413108 0)
(10.1016 0.0377942 0)
(10.1046 0.0332854 0)
(10.1064 0.0278658 0)
(10.0067 0.0244782 0)
(10.0216 0.0363835 0)
(10.0341 0.0415844 0)
(10.0434 0.0449335 0)
(10.0514 0.0470133 0)
(10.0585 0.0481098 0)
(10.0648 0.0485658 0)
(10.0704 0.0485818 0)
(10.0757 0.0482491 0)
(10.0807 0.047607 0)
(10.0854 0.046662 0)
(10.09 0.0453919 0)
(10.0945 0.0437449 0)
(10.0989 0.0416392 0)
(10.1031 0.0389667 0)
(10.107 0.0356146 0)
(10.1103 0.0315422 0)
(10.1125 0.0269343 0)
(10.005 0.0203586 0)
(10.0173 0.0322071 0)
(10.0291 0.0380086 0)
(10.0386 0.0417115 0)
(10.047 0.0440522 0)
(10.0545 0.0453616 0)
(10.0614 0.0459758 0)
(10.0677 0.0460983 0)
(10.0735 0.0458293 0)
(10.079 0.0452167 0)
(10.0843 0.0442754 0)
(10.0894 0.0429926 0)
(10.0942 0.0413313 0)
(10.0989 0.0392338 0)
(10.1033 0.0366316 0)
(10.1073 0.0334691 0)
(10.1107 0.0297654 0)
(10.1133 0.0257207 0)
(10.0039 0.0172048 0)
(10.0141 0.0286227 0)
(10.0249 0.0347175 0)
(10.0342 0.0386466 0)
(10.0426 0.0411672 0)
(10.0504 0.0426334 0)
(10.0576 0.0433697 0)
(10.0642 0.0435773 0)
(10.0704 0.0433623 0)
(10.0763 0.0427799 0)
(10.0819 0.0418517 0)
(10.0872 0.040574 0)
(10.0923 0.0389229 0)
(10.0972 0.0368613 0)
(10.1017 0.0343512 0)
(10.1058 0.0313758 0)
(10.1093 0.0279854 0)
(10.1121 0.0243736 0)
(10.0029 0.01435 0)
(10.0112 0.024979 0)
(10.0208 0.0311318 0)
(10.0297 0.0351661 0)
(10.0379 0.0378021 0)
(10.0457 0.0393884 0)
(10.0529 0.0402265 0)
(10.0597 0.0405102 0)
(10.0661 0.0403481 0)
(10.0722 0.0398003 0)
(10.078 0.0388954 0)
(10.0835 0.0376393 0)
(10.0888 0.0360222 0)
(10.0937 0.0340276 0)
(10.0983 0.0316437 0)
(10.1024 0.0288826 0)
(10.106 0.0258103 0)
(10.1091 0.022604 0)
(10.0021 0.0117925 0)
(10.0088 0.0213607 0)
(10.0171 0.0273354 0)
(10.0253 0.0313289 0)
(10.0331 0.0339885 0)
(10.0406 0.0356357 0)
(10.0477 0.0365374 0)
(10.0545 0.0368745 0)
(10.061 0.0367544 0)
(10.0671 0.0362402 0)
(10.073 0.0353666 0)
(10.0786 0.0341489 0)
(10.0839 0.0325912 0)
(10.0888 0.0306949 0)
(10.0934 0.0284692 0)
(10.0975 0.0259449 0)
(10.1011 0.0231919 0)
(10.1043 0.020365 0)
(10.0015 0.00952855 0)
(10.0068 0.0178442 0)
(10.0139 0.0234091 0)
(10.0212 0.0272098 0)
(10.0284 0.0297843 0)
(10.0355 0.0314148 0)
(10.0424 0.0323269 0)
(10.049 0.0326825 0)
(10.0553 0.0325841 0)
(10.0614 0.0320957 0)
(10.0672 0.0312567 0)
(10.0727 0.0300909 0)
(10.0779 0.0286144 0)
(10.0827 0.0268428 0)
(10.0872 0.0247997 0)
(10.0913 0.0225254 0)
(10.0949 0.0200866 0)
(10.0981 0.0176122 0)
(10.0011 0.00753501 0)
(10.0052 0.0144848 0)
(10.0111 0.0194266 0)
(10.0176 0.022882 0)
(10.0242 0.0252553 0)
(10.0307 0.0267802 0)
(10.0372 0.027639 0)
(10.0435 0.0279697 0)
(10.0495 0.027866 0)
(10.0554 0.0273902 0)
(10.0609 0.0265847 0)
(10.0662 0.0254798 0)
(10.0712 0.0241003 0)
(10.0759 0.0224717 0)
(10.0803 0.0206253 0)
(10.0842 0.0186038 0)
(10.0878 0.0164661 0)
(10.091 0.0143163 0)
(10.0009 0.00576863 0)
(10.0041 0.0113052 0)
(10.009 0.0154439 0)
(10.0146 0.018406 0)
(10.0205 0.0204604 0)
(10.0265 0.0217861 0)
(10.0324 0.0225227 0)
(10.0383 0.0227809 0)
(10.044 0.0226417 0)
(10.0495 0.0221628 0)
(10.0548 0.0213868 0)
(10.0598 0.0203473 0)
(10.0645 0.0190743 0)
(10.069 0.0175979 0)
(10.0731 0.0159518 0)
(10.0769 0.0141762 0)
(10.0803 0.0123202 0)
(10.0835 0.0104662 0)
(10.0007 0.00417526 0)
(10.0032 0.00829261 0)
(10.0073 0.0114882 0)
(10.0121 0.0138195 0)
(10.0174 0.0154402 0)
(10.0228 0.0164731 0)
(10.0282 0.0170168 0)
(10.0337 0.0171535 0)
(10.039 0.0169477 0)
(10.0441 0.0164489 0)
(10.049 0.0156963 0)
(10.0537 0.0147233 0)
(10.0581 0.0135604 0)
(10.0623 0.0122379 0)
(10.0662 0.0107877 0)
(10.0698 0.00924429 0)
(10.073 0.00764708 0)
(10.0761 0.00606019 0)
(10.0005 0.0026955 0)
(10.0026 0.00539863 0)
(10.0061 0.00754507 0)
(10.0103 0.00912237 0)
(10.0149 0.010201 0)
(10.0198 0.0108507 0)
(10.0248 0.011132 0)
(10.0298 0.0110982 0)
(10.0347 0.0107943 0)
(10.0395 0.0102578 0)
(10.044 0.00952082 0)
(10.0484 0.00861186 0)
(10.0525 0.00755798 0)
(10.0564 0.00638574 0)
(10.0601 0.00512197 0)
(10.0634 0.0037944 0)
(10.0666 0.00243313 0)
(10.0695 0.00108732 0)
(10.0005 0.00126395 0)
(10.0023 0.00253829 0)
(10.0053 0.00354826 0)
(10.009 0.00426476 0)
(10.0133 0.00470301 0)
(10.0177 0.00488686 0)
(10.0223 0.0048409 0)
(10.0269 0.0045897 0)
(10.0315 0.00415672 0)
(10.0359 0.00356385 0)
(10.0402 0.00283164 0)
(10.0443 0.00198009 0)
(10.0481 0.00102904 0)
(10.0518 -1.71551e-06 0)
(10.0552 -0.00109237 0)
(10.0584 -0.00222284 0)
(10.0614 -0.00337118 0)
(10.0642 -0.00449984 0)
(10.0004 -0.000119759 0)
(10.0021 -0.000251627 0)
(10.005 -0.000390456 0)
(10.0085 -0.000562976 0)
(10.0125 -0.000795371 0)
(10.0168 -0.00110487 0)
(10.0211 -0.0015006 0)
(10.0255 -0.00198601 0)
(10.0298 -0.00256013 0)
(10.034 -0.00321854 0)
(10.0381 -0.00395395 0)
(10.0419 -0.00475712 0)
(10.0456 -0.00561743 0)
(10.0491 -0.00652325 0)
(10.0523 -0.00746238 0)
(10.0554 -0.00842205 0)
(10.0583 -0.0093875 0)
(10.061 -0.010331 0)
(10.0004 -0.00143386 0)
(10.0022 -0.00288587 0)
(10.0052 -0.00408401 0)
(10.0088 -0.00506232 0)
(10.0128 -0.00589402 0)
(10.0171 -0.00663818 0)
(10.0214 -0.00733685 0)
(10.0257 -0.00802057 0)
(10.0299 -0.00871022 0)
(10.034 -0.00941826 0)
(10.0379 -0.0101507 0)
(10.0417 -0.0109087 0)
(10.0452 -0.0116902 0)
(10.0486 -0.0124909 0)
(10.0518 -0.0133051 0)
(10.0547 -0.0141259 0)
(10.0575 -0.0149436 0)
(10.0602 -0.0157382 0)
(10.0005 -0.00273834 0)
(10.0026 -0.00544292 0)
(10.0059 -0.00758077 0)
(10.0098 -0.00923521 0)
(10.014 -0.0105506 0)
(10.0184 -0.0116325 0)
(10.0228 -0.0125562 0)
(10.0271 -0.0133785 0)
(10.0314 -0.0141406 0)
(10.0354 -0.0148697 0)
(10.0393 -0.0155828 0)
(10.043 -0.0162898 0)
(10.0466 -0.0169957 0)
(10.0499 -0.017702 0)
(10.053 -0.018408 0)
(10.0559 -0.0191113 0)
(10.0586 -0.0198067 0)
(10.0613 -0.0204797 0)
(10.0007 -0.00415028 0)
(10.0032 -0.0081032 0)
(10.0071 -0.0110685 0)
(10.0115 -0.0132658 0)
(10.0161 -0.0149465 0)
(10.0207 -0.0162661 0)
(10.0253 -0.0173329 0)
(10.0297 -0.01823 0)
(10.034 -0.0190169 0)
(10.0381 -0.0197329 0)
(10.042 -0.0204038 0)
(10.0457 -0.0210461 0)
(10.0492 -0.02167 0)
(10.0524 -0.0222814 0)
(10.0555 -0.0228836 0)
(10.0583 -0.0234779 0)
(10.061 -0.0240624 0)
(10.0635 -0.0246276 0)
(10.0009 -0.00579589 0)
(10.0043 -0.0110156 0)
(10.009 -0.0146659 0)
(10.014 -0.0172548 0)
(10.019 -0.0191745 0)
(10.0239 -0.0206256 0)
(10.0287 -0.021749 0)
(10.0333 -0.0226537 0)
(10.0376 -0.0234142 0)
(10.0417 -0.0240792 0)
(10.0455 -0.0246805 0)
(10.0492 -0.025239 0)
(10.0525 -0.0257683 0)
(10.0557 -0.0262773 0)
(10.0587 -0.026772 0)
(10.0614 -0.0272565 0)
(10.064 -0.0277323 0)
(10.0664 -0.0281949 0)
(10.0014 -0.00782814 0)
(10.0059 -0.0143009 0)
(10.0117 -0.0184251 0)
(10.0174 -0.0212253 0)
(10.0228 -0.0232446 0)
(10.028 -0.0247125 0)
(10.0329 -0.0258014 0)
(10.0374 -0.0266441 0)
(10.0417 -0.0273262 0)
(10.0457 -0.0279017 0)
(10.0494 -0.0284055 0)
(10.0529 -0.0288607 0)
(10.0561 -0.0292823 0)
(10.0591 -0.0296803 0)
(10.0618 -0.030062 0)
(10.0643 -0.0304335 0)
(10.0667 -0.0307993 0)
(10.0689 -0.0311607 0)
(10.0021 -0.0104351 0)
(10.0083 -0.0180358 0)
(10.0153 -0.0223201 0)
(10.0216 -0.025117 0)
(10.0272 -0.0270824 0)
(10.0325 -0.0284465 0)
(10.0373 -0.0294114 0)
(10.0417 -0.0301284 0)
(10.0457 -0.0306876 0)
(10.0494 -0.0311427 0)
(10.0528 -0.0315284 0)
(10.056 -0.0318667 0)
(10.0589 -0.032172 0)
(10.0615 -0.0324538 0)
(10.0639 -0.032719 0)
(10.0661 -0.0329744 0)
(10.0681 -0.0332276 0)
(10.07 -0.0334867 0)
(10.0033 -0.0138388 0)
(10.0117 -0.0222121 0)
(10.0198 -0.0262243 0)
(10.0263 -0.0287815 0)
(10.0318 -0.03054 0)
(10.0368 -0.0316913 0)
(10.0412 -0.032458 0)
(10.0451 -0.033 0)
(10.0486 -0.0334043 0)
(10.0518 -0.0337201 0)
(10.0547 -0.0339782 0)
(10.0573 -0.0341977 0)
(10.0596 -0.0343898 0)
(10.0618 -0.0345612 0)
(10.0637 -0.0347164 0)
(10.0655 -0.0348601 0)
(10.067 -0.0350016 0)
(10.0684 -0.0351575 0)
(10.005 -0.0182956 0)
(10.0159 -0.0266597 0)
(10.0247 -0.029868 0)
(10.0307 -0.031965 0)
(10.0355 -0.0333846 0)
(10.0397 -0.03424 0)
(10.0432 -0.0347648 0)
(10.0462 -0.0351148 0)
(10.0489 -0.0353621 0)
(10.0512 -0.0355439 0)
(10.0532 -0.0356835 0)
(10.055 -0.0357948 0)
(10.0566 -0.0358851 0)
(10.058 -0.035957 0)
(10.0592 -0.0360104 0)
(10.0603 -0.036045 0)
(10.0611 -0.0360675 0)
(10.0618 -0.0360991 0)
(10.0075 -0.0241251 0)
(10.0207 -0.0310237 0)
(10.0287 -0.0328153 0)
(10.0331 -0.0343169 0)
(10.0363 -0.0353629 0)
(10.0389 -0.0359169 0)
(10.0409 -0.0362094 0)
(10.0424 -0.0363835 0)
(10.0435 -0.0364916 0)
(10.0443 -0.0365565 0)
(10.0449 -0.0365928 0)
(10.0453 -0.0366096 0)
(10.0455 -0.0366103 0)
(10.0456 -0.0365938 0)
(10.0455 -0.0365547 0)
(10.0453 -0.0364839 0)
(10.0449 -0.0363765 0)
(10.0443 -0.0362412 0)
(10.0101 -0.0307456 0)
(10.0238 -0.0344076 0)
(10.0287 -0.0343621 0)
(10.0292 -0.035236 0)
(10.0289 -0.0359368 0)
(10.0281 -0.0362231 0)
(10.0266 -0.0363061 0)
(10.0246 -0.0363125 0)
(10.0224 -0.0362784 0)
(10.0199 -0.0362169 0)
(10.0173 -0.0361382 0)
(10.0145 -0.0360486 0)
(10.0116 -0.0359494 0)
(10.0087 -0.0358372 0)
(10.0057 -0.0357012 0)
(10.0026 -0.0355193 0)
(9.99949 -0.0352573 0)
(9.99605 -0.0348514 0)
(10.0062 -0.036408 0)
(10.0142 -0.0379472 0)
(10.0067 -0.0361124 0)
(9.99423 -0.0359754 0)
(9.98161 -0.0359983 0)
(9.96878 -0.0357914 0)
(9.95555 -0.0354952 0)
(9.94212 -0.0351963 0)
(9.92866 -0.0349069 0)
(9.91527 -0.0346245 0)
(9.90199 -0.0343485 0)
(9.88887 -0.0340783 0)
(9.87592 -0.0338115 0)
(9.86318 -0.0335427 0)
(9.85067 -0.0332596 0)
(9.83843 -0.0329324 0)
(9.82648 -0.0324926 0)
(9.81428 -0.0315541 0)
(9.89292 -0.0248309 0)
(9.80337 -0.027076 0)
(9.69906 -0.0264881 0)
(9.59607 -0.0263389 0)
(9.49955 -0.0261463 0)
(9.40857 -0.0258003 0)
(9.32225 -0.0253934 0)
(9.24036 -0.0249795 0)
(9.16274 -0.0245711 0)
(9.08916 -0.0241698 0)
(9.01939 -0.0237761 0)
(8.95323 -0.02339 0)
(8.89048 -0.0230107 0)
(8.83097 -0.0226359 0)
(8.77453 -0.0222604 0)
(8.72103 -0.0218683 0)
(8.67058 -0.0214127 0)
(8.62164 -0.0205358 0)
(0.000271446 -0.000434597 0)
(0.00155692 -0.00157301 0)
(0.00414924 -0.00272994 0)
(0.0074804 -0.00355817 0)
(0.0110891 -0.00396458 0)
(0.0146596 -0.0040014 0)
(0.0179764 -0.00376042 -5.82258e-19)
(0.0208985 -0.00333 5.60602e-19)
(0.0233439 -0.00278652 0)
(0.0252766 -0.00219629 5.3143e-19)
(0.0266961 -0.0016142 0)
(0.0276263 -0.00107782 0)
(0.0281025 -0.000604573 0)
(0.0281623 -0.000197143 -5.04389e-19)
(0.0278426 0.00014608 0)
(0.0271849 0.000430018 0)
(0.0262166 0.000665446 4.87545e-19)
(0.024954 0.000861686 0)
(0.0234037 0.00102451 0)
(0.0215637 0.00116149 0)
(0.0194004 0.00130807 -4.63973e-19)
(0.0168716 0.00150683 0)
(0.0139143 0.00180806 -4.63178e-19)
(0.0104391 0.00227047 0)
(0.00633935 0.00292241 0)
(0.0014875 0.00374916 -5.06098e-19)
(-0.00430495 0.00470425 0)
(-0.0109461 0.00570659 4.75353e-19)
(-0.0185919 0.00676256 0)
(-0.0272678 0.00786108 -4.21933e-19)
(-0.0369949 0.0089766 0)
(-0.0477786 0.0100828 0)
(-0.0596083 0.0111575 0)
(-0.0724594 0.0121839 0)
(-0.0862975 0.0131508 0)
(-0.101081 0.0140513 2.74533e-19)
(-0.116762 0.0148825 0)
(-0.133294 0.015644 -4.75404e-19)
(-0.150627 0.0163378 0)
(-0.168711 0.0169673 4.14171e-19)
(-0.187501 0.0175366 0)
(-0.206951 0.0180506 0)
(-0.227021 0.0185146 -3.41639e-19)
(-0.247674 0.0189337 0)
(-0.268877 0.0193129 -3.03485e-19)
(-0.290598 0.0196571 2.86867e-19)
(-0.312814 0.0199705 0)
(-0.3355 0.0202571 2.57721e-19)
(-0.358637 0.0205205 2.44915e-19)
(-0.382209 0.0207639 0)
(-0.406201 0.0209898 0)
(-0.430601 0.0212007 0)
(-0.455398 0.0213985 0)
(-0.480584 0.0215846 0)
(-0.506151 0.0217602 -1.86222e-19)
(-0.532094 0.0219259 0)
(-0.558409 0.0220822 1.7176e-19)
(-0.585089 0.0222289 0)
(-0.612132 0.0223656 0)
(-0.639533 0.0224916 -1.53399e-19)
(-0.667286 0.0226058 0)
(-0.695385 0.0227068 1.42964e-19)
(-0.723826 0.0227926 0)
(-0.752599 0.0228609 0)
(-0.781698 0.0229083 0)
(-0.811113 0.0229311 -1.25466e-19)
(-0.840834 0.0229245 0)
(-0.870846 0.0228828 0)
(-0.901135 0.0227993 -1.14677e-19)
(-0.931679 0.022667 0)
(-0.962456 0.0224792 -1.08371e-19)
(-0.993438 0.0222318 0)
(-1.0246 0.0219283 0)
(-1.05591 0.0215885 0)
(-1.08734 0.0212633 9.74322e-20)
(-1.1189 0.0210609 0)
(-1.15067 0.0211993 0)
(-1.1827 0.0220939 9.00744e-20)
(-1.21508 0.0227312 8.7938e-20)
(-1.24766 0.0226333 0)
(-1.2803 0.0225405 8.41203e-20)
(-1.31304 0.0224587 0)
(-1.34588 0.0223734 1.61227e-19)
(-1.3788 0.0222771 0)
(-1.4118 0.022166 1.54757e-19)
(-1.44483 0.022038 0)
(-1.47788 0.0218921 -1.4877e-19)
(-1.51092 0.0217279 0)
(-1.54392 0.0215449 0)
(-1.57684 0.0213427 0)
(-1.60966 0.0211211 1.3804e-19)
(-1.64234 0.0208801 0)
(-1.67486 0.0206195 -1.33207e-19)
(-1.70717 0.0203397 0)
(-1.73924 0.0200408 1.28675e-19)
(-1.77105 0.0197229 1.2651e-19)
(-1.80256 0.019386 1.24405e-19)
(-1.83372 0.01903 0)
(-1.86452 0.0186547 0)
(-1.8949 0.0182598 0)
(-1.92484 0.0178449 0)
(-1.9543 0.0174095 0)
(-1.98323 0.0169526 0)
(-2.01159 0.0164731 0)
(-2.03934 0.0159695 0)
(-2.06642 0.01544 -1.07563e-19)
(-2.0928 0.0148829 -1.05857e-19)
(-2.1184 0.0142962 0)
(-2.14317 0.0136782 0)
(-2.16705 0.0130272 0)
(-2.18997 0.0123415 -9.92029e-20)
(-2.21185 0.0116198 0)
(-2.23262 0.0108609 0)
(-2.2522 0.0100647 0)
(-2.2705 0.00923196 0)
(-2.28745 0.00836437 9.10554e-20)
(-2.30297 0.00746441 0)
(-2.31698 0.0065351 0)
(-2.32941 0.00558006 -8.61276e-20)
(-2.3402 0.00460362 8.44633e-20)
(-2.3493 0.00361067 0)
(-2.35664 0.00260601 8.10877e-20)
(-2.36221 0.00159321 0)
(-2.36595 0.000575379 -7.76294e-20)
(-2.36784 -0.000432648 0)
(-2.3679 -0.00141906 0)
(-2.36612 -0.00238401 0)
(-2.36254 -0.00332683 0)
(-2.35718 -0.00424696 0)
(-2.35006 -0.00514401 1.32733e-19)
(-2.34121 -0.0060173 1.28751e-19)
(-2.33066 -0.00686582 0)
(-2.31843 -0.00768862 0)
(-2.30458 -0.00848514 0)
(-2.28912 -0.00925472 -1.12055e-19)
(-2.27211 -0.00999636 0)
(-2.25357 -0.0107091 0)
(-2.23356 -0.0113927 0)
(-2.21211 -0.012047 -9.40184e-20)
(-2.18928 -0.0126718 8.9287e-20)
(-2.16511 -0.0132667 0)
(-2.13964 -0.0138317 0)
(-2.11293 -0.0143674 7.45386e-20)
(-2.08502 -0.0148745 6.94342e-20)
(-2.05596 -0.0153534 0)
(-2.02579 -0.0158046 0)
(-1.99456 -0.0162291 -5.35405e-20)
(-1.96231 -0.0166278 4.80448e-20)
(-1.92909 -0.0170019 0)
(-1.89491 -0.0173532 0)
(-1.85984 -0.017684 3.09388e-20)
(-1.82388 -0.0179972 0)
(-1.78706 -0.0182955 0)
(-1.74941 -0.0185808 1.28411e-20)
(-1.71093 -0.0188559 0)
(-1.67162 -0.0191242 1.62053e-22)
(-1.63149 -0.0193882 0)
(-1.59054 -0.0196502 0)
(-1.54873 -0.0199151 0)
(-1.50606 -0.0201875 2.69592e-20)
(-1.46248 -0.0204719 0)
(-1.41795 -0.0207735 0)
(-1.37242 -0.0210955 0)
(-1.32581 -0.0214423 0)
(-1.27806 -0.0218191 0)
(-1.22907 -0.0222343 0)
(-1.17874 -0.0226937 8.26474e-20)
(-1.12695 -0.0231977 9.1853e-20)
(-1.0736 -0.0237487 0)
(-1.01853 -0.0243567 0)
(-0.961609 -0.0250136 0)
(-0.902729 -0.0257029 -1.33394e-19)
(-0.841785 -0.0264223 0)
(-0.778735 -0.027126 3.15635e-19)
(-0.713595 -0.0278008 -3.42387e-19)
(-0.646588 -0.0283482 -3.70844e-19)
(-0.577728 -0.0288359 4.01044e-19)
(-0.508709 -0.0288289 -4.33408e-19)
(-0.434293 -0.0304463 4.67834e-19)
(-0.368324 -0.031074 0)
(0.000727823 -0.00330404 0)
(0.00354067 -0.00771328 0)
(0.0072089 -0.0103374 1.10719e-18)
(0.0109311 -0.0114029 0)
(0.0143539 -0.011348 -7.63408e-19)
(0.0173278 -0.0105547 -6.70513e-19)
(0.0197901 -0.00931136 -3.0267e-19)
(0.0217192 -0.00782508 -2.79908e-19)
(0.0231151 -0.00623917 0)
(0.0239871 -0.00465003 -2.55857e-19)
(0.0243418 -0.00311924 0)
(0.0241771 -0.001677 0)
(0.023472 -0.000334354 5.01496e-19)
(0.02224 0.000896218 2.52003e-19)
(0.0204943 0.00201214 -5.08137e-19)
(0.0182304 0.00303604 -5.13849e-19)
(0.0154355 0.00400553 -2.60324e-19)
(0.0120912 0.00495722 0)
(0.00816812 0.00593027 0)
(0.00363157 0.006969 0)
(-0.00164015 0.0081312 -2.71985e-19)
(-0.00761239 0.00943074 0)
(-0.0143616 0.0109151 7.61703e-19)
(-0.0219326 0.0126244 0)
(-0.0303415 0.0145572 0)
(-0.0395928 0.0166701 2.20345e-19)
(-0.0496816 0.0188945 0)
(-0.06059 0.0211819 -1.97103e-19)
(-0.0723105 0.0235048 -3.71655e-19)
(-0.0848187 0.0258253 1.75034e-19)
(-0.0980875 0.0281065 0)
(-0.112088 0.030316 0)
(-0.12679 0.0324279 0)
(-0.142162 0.0344232 -2.74413e-19)
(-0.158174 0.0362895 -2.5847e-19)
(-0.174794 0.03802 -1.21865e-19)
(-0.19199 0.039613 0)
(-0.209732 0.04107 2.17283e-19)
(-0.227989 0.042396 0)
(-0.246734 0.0435976 -1.94611e-19)
(-0.265941 0.0446834 0)
(-0.285584 0.0456626 0)
(-0.305643 0.0465449 1.66502e-19)
(-0.326099 0.0473401 0)
(-0.346935 0.0480577 4.52818e-19)
(-0.368137 0.0487069 -1.44042e-19)
(-0.389695 0.0492961 0)
(-0.411599 0.0498329 -1.31551e-19)
(-0.433841 0.0503244 -1.25928e-19)
(-0.456417 0.0507766 0)
(-0.479321 0.0511949 0)
(-0.502552 0.0515841 0)
(-0.526105 0.0519481 0)
(-0.549982 0.05229 0)
(-0.574181 0.0526126 9.9012e-20)
(-0.598702 0.0529178 1.90706e-19)
(-0.623545 0.053207 -9.20779e-20)
(-0.648712 0.0534811 0)
(-0.674202 0.0537408 1.7167e-19)
(-0.700014 0.0539861 -8.29251e-20)
(-0.726149 0.0542169 0)
(-0.752605 0.0544329 -7.79323e-20)
(-0.779379 0.0546335 0)
(-0.806469 0.0548178 0)
(-0.833872 0.0549848 -1.42155e-19)
(-0.861585 0.0551333 6.91537e-20)
(-0.889604 0.0552621 -1.34288e-19)
(-0.917924 0.0553697 1.30659e-19)
(-0.946542 0.0554546 6.37078e-20)
(-0.975453 0.0555151 0)
(-1.00465 0.0555491 6.05415e-20)
(-1.03414 0.0555539 0)
(-1.06391 0.0555257 0)
(-1.09396 0.0554598 0)
(-1.12429 0.0553484 5.50289e-20)
(-1.15489 0.0551808 0)
(-1.18571 0.0549519 1.05566e-19)
(-1.21663 0.0546918 -1.54812e-19)
(-1.24759 0.0544342 -5.04544e-20)
(-1.2787 0.054166 0)
(-1.31 0.0539009 -4.81451e-20)
(-1.34141 0.0536284 0)
(-1.37292 0.0533345 -9.20065e-20)
(-1.4045 0.0530101 0)
(-1.43611 0.0526501 -8.80329e-20)
(-1.46774 0.0522511 1.719e-19)
(-1.49935 0.0518116 8.43403e-20)
(-1.53093 0.0513306 0)
(-1.56243 0.0508074 0)
(-1.59384 0.0502417 0)
(-1.62512 0.0496335 -7.76887e-20)
(-1.65624 0.0489829 0)
(-1.68717 0.0482903 7.46813e-20)
(-1.71787 0.0475564 0)
(-1.74831 0.046782 -2.15195e-19)
(-1.77847 0.0459676 -7.05068e-20)
(-1.8083 0.0451136 -6.91949e-20)
(-1.83778 0.0442204 0)
(-1.86686 0.043288 0)
(-1.89552 0.0423162 0)
(-1.92371 0.0413045 0)
(-1.95141 0.0402521 0)
(-1.97856 0.0391574 -1.23656e-19)
(-2.00512 0.0380183 -1.2144e-19)
(-2.03106 0.0368323 0)
(-2.05633 0.0355961 5.87029e-20)
(-2.08087 0.0343062 5.76403e-20)
(-2.10463 0.0329589 0)
(-2.12755 0.0315506 1.10852e-19)
(-2.14957 0.0300776 0)
(-2.17062 0.0285367 -5.32749e-20)
(-2.19063 0.0269248 0)
(-2.20954 0.0252402 0)
(-2.22726 0.0234822 1.0072e-19)
(-2.24371 0.0216523 0)
(-2.25882 0.0197539 -4.84169e-20)
(-2.27251 0.0177921 0)
(-2.28472 0.0157737 0)
(-2.29536 0.0137072 -4.52892e-20)
(-2.30438 0.0116026 -4.43333e-20)
(-2.31172 0.00947094 0)
(-2.31735 0.00732333 4.22586e-20)
(-2.3212 0.00516839 0)
(-2.32325 0.00301355 -4.01931e-20)
(-2.3235 0.000882616 -7.81806e-20)
(-2.32195 -0.00119927 0)
(-2.31863 -0.00322567 0)
(-2.31354 -0.00519341 0)
(-2.30672 -0.00710109 0)
(-2.29818 -0.00894784 -6.68929e-20)
(-2.28796 -0.0107326 -1.94092e-19)
(-2.27608 -0.0124541 0)
(-2.26258 -0.0141112 0)
(-2.24748 -0.0157029 0)
(-2.23082 -0.0172282 5.50603e-20)
(-2.21263 -0.018686 0)
(-2.19296 -0.0200755 0)
(-2.17184 -0.0213964 -9.59096e-20)
(-2.14932 -0.022649 -4.57663e-20)
(-2.12543 -0.0238336 -4.2607e-20)
(-2.10021 -0.0249507 0)
(-2.07372 -0.0260012 0)
(-2.04599 -0.0269871 -3.488e-20)
(-2.01707 -0.0279103 3.30213e-20)
(-1.98699 -0.028773 0)
(-1.95579 -0.0295775 0)
(-1.92351 -0.0303263 2.4354e-20)
(-1.89018 -0.0310224 -6.59133e-20)
(-1.85584 -0.0316692 0)
(-1.82052 -0.0322707 0)
(-1.78423 -0.0328321 -1.36491e-20)
(-1.747 -0.0333589 0)
(-1.70884 -0.0338571 -1.74221e-20)
(-1.66977 -0.0343323 6.48034e-21)
(-1.62977 -0.0347907 0)
(-1.58884 -0.0352376 -6.86437e-23)
(-1.54697 -0.0356777 4.35518e-21)
(-1.50415 -0.0361166 0)
(-1.46034 -0.0365619 0)
(-1.41552 -0.0370222 -1.10404e-20)
(-1.36963 -0.0375054 0)
(-1.32263 -0.0380199 3.23784e-20)
(-1.27444 -0.0385707 0)
(-1.22499 -0.0391641 0)
(-1.17421 -0.0398087 0)
(-1.12201 -0.0405162 0)
(-1.06826 -0.0412956 -3.18546e-20)
(-1.01287 -0.0421473 -3.50905e-20)
(-0.955719 -0.0430713 0)
(-0.896685 -0.0440827 0)
(-0.835632 -0.0451693 0)
(-0.772465 -0.0463019 4.91415e-20)
(-0.707083 -0.0474753 0)
(-0.639449 -0.0486167 -1.14128e-19)
(-0.569541 -0.0496935 1.2265e-19)
(-0.497566 -0.0505468 1.31617e-19)
(-0.423378 -0.0512493 1.37784e-19)
(-0.348679 -0.0512739 1.51166e-19)
(-0.268774 -0.0527221 1.5855e-19)
(-0.198728 -0.0514986 0)
(0.0010048 -0.00838305 0)
(0.00409698 -0.0155197 0)
(0.00728077 -0.0180379 -8.27594e-19)
(0.0100363 -0.0180996 -6.43695e-19)
(0.0122599 -0.0168395 5.40548e-19)
(0.0139397 -0.0148384 4.79492e-19)
(0.0150865 -0.01243 2.28321e-24)
(0.0157081 -0.00982488 0)
(0.0158034 -0.00715882 0)
(0.015361 -0.00451066 0)
(0.0143605 -0.00191405 0)
(0.0127471 0.00062067 0)
(0.0105607 0.00304826 -1.18711e-18)
(0.00778945 0.00535513 0)
(0.00442187 0.00756045 3.98672e-19)
(0.00042535 0.00970876 3.9887e-19)
(-0.00422234 0.0118342 0)
(-0.00951553 0.0139676 0)
(-0.0154927 0.0161709 0)
(-0.0221727 0.0184926 0)
(-0.0295743 0.0209586 3.48004e-19)
(-0.0377059 0.0235868 0)
(-0.0465718 0.0263952 -3.20658e-19)
(-0.0561537 0.0293802 0)
(-0.0664213 0.032516 0)
(-0.0773423 0.0357601 0)
(-0.0888872 0.0390626 -5.25775e-19)
(-0.10103 0.0423765 0)
(-0.113744 0.0456605 2.35877e-19)
(-0.127003 0.0488763 -4.46414e-19)
(-0.140781 0.0519897 0)
(-0.155055 0.0549714 0)
(-0.169804 0.0577985 0)
(-0.185009 0.0604542 1.79384e-19)
(-0.200652 0.062928 1.70072e-19)
(-0.216718 0.0652154 0)
(-0.233193 0.0673164 0)
(-0.250062 0.0692357 -2.91322e-19)
(-0.267313 0.070981 -2.77204e-19)
(-0.284936 0.0725623 2.6404e-19)
(-0.302919 0.0739917 0)
(-0.321255 0.0752821 0)
(-0.339936 0.0764468 0)
(-0.358955 0.077499 0)
(-0.378307 0.0784518 -2.10385e-19)
(-0.397989 0.0793171 -2.01618e-19)
(-0.417996 0.0801063 1.93463e-19)
(-0.438328 0.0808296 0)
(-0.458982 0.0814961 0)
(-0.479959 0.0821137 0)
(-0.501256 0.0826894 0)
(-0.522875 0.083229 -1.59701e-19)
(-0.544816 0.0837375 0)
(-0.567078 0.0842186 0)
(-0.589664 0.0846753 -1.43891e-19)
(-0.612574 0.0851099 -1.39274e-19)
(-0.635809 0.0855236 0)
(-0.659369 0.0859172 2.61173e-19)
(-0.683256 0.0862908 -1.2669e-19)
(-0.707469 0.0866439 1.22929e-19)
(-0.732007 0.0869756 0)
(-0.75687 0.0872844 0)
(-0.782055 0.0875686 0)
(-0.80756 0.0878261 0)
(-0.833383 0.0880544 1.06729e-19)
(-0.85952 0.088251 2.07699e-19)
(-0.885969 0.0884131 1.01255e-19)
(-0.912723 0.0885383 -9.86953e-20)
(-0.939779 0.0886243 0)
(-0.967131 0.0886698 1.87622e-19)
(-0.994773 0.0886739 1.83118e-19)
(-1.0227 0.0886374 1.78802e-19)
(-1.0509 0.0885625 -1.74666e-19)
(-1.07937 0.0884531 0)
(-1.10811 0.088315 -2.50412e-19)
(-1.13709 0.0881549 0)
(-1.1663 0.0879803 7.96614e-20)
(-1.19566 0.0877858 7.8024e-20)
(-1.22513 0.0875094 0)
(-1.25473 0.0871357 0)
(-1.28447 0.0867045 1.45241e-19)
(-1.31431 0.0862246 0)
(-1.34424 0.0856932 1.38735e-19)
(-1.37421 0.0851054 0)
(-1.40422 0.084457 -1.3267e-19)
(-1.43423 0.0837451 -2.5977e-19)
(-1.46421 0.0829676 0)
(-1.49415 0.0821233 0)
(-1.52401 0.0812114 0)
(-1.55376 0.0802317 -1.19183e-19)
(-1.58337 0.0791841 0)
(-1.61281 0.0780691 -1.14363e-19)
(-1.64206 0.0768876 0)
(-1.67107 0.0756406 0)
(-1.69982 0.0743291 2.15468e-19)
(-1.72828 0.0729541 0)
(-1.75641 0.0715164 1.03471e-19)
(-1.78418 0.0700166 0)
(-1.81155 0.0684549 9.95003e-20)
(-1.8385 0.066831 0)
(-1.86499 0.0651443 0)
(-1.89098 0.0633933 0)
(-1.91643 0.0615756 2.76351e-19)
(-1.9413 0.059688 9.04369e-20)
(-1.96555 0.0577265 0)
(-1.98914 0.0556862 0)
(-2.01201 0.0535619 0)
(-2.03412 0.0513478 0)
(-2.0554 0.0490382 -8.19109e-20)
(-2.07581 0.0466275 1.60309e-19)
(-2.09527 0.0441104 7.86124e-20)
(-2.11371 0.0414827 -1.53783e-19)
(-2.13107 0.0387415 -1.50543e-19)
(-2.14727 0.0358865 -7.37244e-20)
(-2.16224 0.03292 0)
(-2.1759 0.0298471 -1.40874e-19)
(-2.18818 0.0266759 0)
(-2.199 0.0234174 1.34442e-19)
(-2.2083 0.0200852 6.56286e-20)
(-2.21602 0.0166954 0)
(-2.22209 0.0132658 -1.24777e-19)
(-2.22649 0.00981319 -6.07553e-20)
(-2.22917 0.00635176 0)
(-2.23008 0.00290583 -5.7516e-20)
(-2.22925 -0.000484248 1.67304e-19)
(-2.22669 -0.00379036 0)
(-2.22242 -0.00700378 0)
(-2.21644 -0.0101204 0)
(-2.2088 -0.0131379 0)
(-2.1995 -0.0160548 9.444e-20)
(-2.18857 -0.0188695 9.07527e-20)
(-2.17605 -0.0215802 0)
(-2.16196 -0.0241858 0)
(-2.14632 -0.0266848 0)
(-2.12919 -0.0290759 0)
(-2.11058 -0.0313576 0)
(-2.09053 -0.0335293 0)
(-2.06909 -0.035591 6.57712e-20)
(-2.04628 -0.0375433 -3.36559e-22)
(-2.02216 -0.039387 0)
(-1.99674 -0.0411236 0)
(-1.97008 -0.0427552 5.15782e-20)
(-1.94221 -0.0442852 0)
(-1.91317 -0.045717 -4.38902e-20)
(-1.88299 -0.0470548 -4.06497e-20)
(-1.8517 -0.048303 0)
(-1.81934 -0.0494662 0)
(-1.78594 -0.0505494 2.93131e-20)
(-1.75151 -0.0515587 5.23008e-20)
(-1.71608 -0.0525013 0)
(-1.67967 -0.0533854 0)
(-1.64228 -0.0542197 0)
(-1.60393 -0.055014 1.13412e-20)
(-1.56461 -0.0557783 -7.7896e-21)
(-1.52431 -0.0565228 0)
(-1.48302 -0.0572555 -2.53345e-21)
(-1.44071 -0.0579842 1.68176e-21)
(-1.39737 -0.0587182 -1.14712e-20)
(-1.35295 -0.0594688 0)
(-1.30741 -0.0602486 0)
(-1.26069 -0.0610703 -3.24691e-20)
(-1.21275 -0.0619462 -2.039e-20)
(-1.16349 -0.0628839 0)
(-1.11284 -0.0638918 0)
(-1.06072 -0.0649823 0)
(-1.00703 -0.0661714 0)
(-0.951663 -0.0674715 -7.57664e-20)
(-0.894495 -0.0688822 0)
(-0.835421 -0.070401 0)
(-0.774318 -0.0720482 0)
(-0.711049 -0.0738062 0)
(-0.645517 -0.0756309 0)
(-0.57761 -0.0775151 0)
(-0.507275 -0.0793594 -1.34167e-19)
(-0.434434 -0.0811111 0)
(-0.359273 -0.0825702 0)
(-0.281447 -0.0837708 -3.32137e-19)
(-0.202643 -0.0841813 1.76612e-19)
(-0.117962 -0.0857363 -1.91156e-19)
(-0.0418884 -0.0845917 2.02424e-19)
(0.00104068 -0.0134784 0)
(0.0034776 -0.0216413 1.90574e-18)
(0.00540249 -0.023058 0)
(0.00675062 -0.0218586 4.98124e-19)
(0.00756816 -0.0194256 0)
(0.00784119 -0.0163205 0)
(0.00757167 -0.0128398 -3.66007e-19)
(0.00676227 -0.009166 0)
(0.00540054 -0.00540128 0)
(0.00346098 -0.00159929 0)
(0.000919204 0.00219723 0)
(-0.00217445 0.00590349 0)
(-0.00582556 0.00946351 1.2869e-18)
(-0.0100474 0.0128988 6.2833e-19)
(-0.0148511 0.016242 -6.13129e-19)
(-0.0202496 0.0195299 0)
(-0.026256 0.0227997 0)
(-0.0328842 0.0260952 0)
(-0.0401437 0.0294606 0)
(-0.0480323 0.032928 0)
(-0.0565409 0.0365137 5.06413e-19)
(-0.0656546 0.0402225 4.86092e-19)
(-0.0753504 0.0440495 -4.6543e-19)
(-0.085597 0.0479774 4.44662e-19)
(-0.0963593 0.0519768 0)
(-0.107603 0.0560099 0)
(-0.1193 0.0600353 3.84215e-19)
(-0.131422 0.0640126 0)
(-0.143948 0.0679046 0)
(-0.156857 0.0716782 3.29958e-19)
(-0.170132 0.0753047 3.1361e-19)
(-0.183761 0.0787608 2.98213e-19)
(-0.197733 0.0820286 0)
(-0.212039 0.0850958 0)
(-0.226674 0.0879558 -2.57375e-19)
(-0.241633 0.0906071 0)
(-0.256915 0.0930527 0)
(-0.272515 0.0952992 2.23854e-19)
(-0.288435 0.0973565 -2.14063e-19)
(-0.304671 0.0992363 2.04937e-19)
(-0.321225 0.100952 0)
(-0.338095 0.102518 0)
(-0.355282 0.103949 3.61872e-19)
(-0.372785 0.10526 0)
(-0.390604 0.106463 3.34663e-19)
(-0.408741 0.107572 4.83444e-19)
(-0.427195 0.108598 -4.65984e-19)
(-0.445966 0.109554 2.99685e-19)
(-0.465056 0.110447 0)
(-0.484464 0.111288 0)
(-0.504192 0.112082 2.70368e-19)
(-0.524238 0.112836 1.30838e-19)
(-0.544604 0.113555 0)
(-0.56529 0.114242 0)
(-0.586297 0.114902 1.19056e-19)