/*--------------------------------*- C++ -*----------------------------------*\
| =========                 |                                                 |
| \\      /  F ield         | OpenFOAM: The Open Source CFD Toolbox           |
|  \\    /   O peration     | Version:  1.4.2                                 |
|   \\  /    A nd           | Web:      http://www.openfoam.org               |
|    \\/     M anipulation  |                                                 |
\*---------------------------------------------------------------------------*/
FoamFile
{
    version     2.0;
    format      ascii;
    class       volScalarField;
    object      epsilon;
    location    "500";
}
// * * * * * * * * * * * * * * * * * * * * * * * * * * * * * * * * * * * * * //

dimensions      [0 2 -3 0 0 0 0];

internalField   nonuniform List<scalar> 
12225
(
443.026
353.451
290.585
245.344
212.187
187.591
169.242
155.568
145.481
138.205
133.177
129.979
128.294
127.874
128.521
130.075
132.401
135.663
60.1661
73.6164
79.5695
83.6973
87.7171
92.3576
97.9733
104.746
112.774
122.11
132.773
144.755
158.021
172.508
188.118
204.715
222.054
240.192
26.296
33.71
37.8449
40.6834
42.9304
44.9536
46.9656
49.0944
51.4197
53.9924
56.8446
59.9947
63.4488
67.2013
71.2316
75.4963
79.9058
84.2957
18.7356
22.7237
25.4807
27.3755
28.8174
30.0124
31.0724
32.0711
33.0576
34.065
35.1147
36.2204
37.3894
38.6236
39.9191
41.2656
42.643
44.0076
16.1687
18.1637
19.933
21.2923
22.3448
23.185
23.8873
24.5049
25.0718
25.6099
26.134
26.6545
27.1781
27.7086
28.2471
28.7927
29.3414
29.8747
15.2354
16.0866
17.0488
17.9374
18.6898
19.3121
19.8313
20.273
20.6588
21.0054
21.3251
21.6266
21.916
22.1972
22.4727
22.7435
23.0089
23.2587
14.8942
15.1701
15.5866
16.0526
16.5068
16.9225
17.2905
17.611
17.89
18.1355
18.3546
18.5534
18.7366
18.9079
19.0699
19.2242
19.3706
19.5029
14.7876
14.838
14.9916
15.2094
15.4541
15.7015
15.9376
16.1552
16.3521
16.5288
16.6874
16.8303
16.9601
17.0793
17.1897
17.2927
17.3889
17.4745
14.7441
14.6884
14.7003
14.7663
14.8677
14.9885
15.1168
15.2446
15.367
15.4816
15.5873
15.6841
15.7728
15.854
15.9288
15.998
16.0622
16.1196
14.7239
14.6134
14.5425
14.5091
14.5063
14.5262
14.5615
14.6062
14.6555
14.7063
14.7566
14.8049
14.8505
14.8933
14.9331
14.9701
15.0045
15.0353
14.7149
14.579
14.4657
14.3757
14.3076
14.2584
14.2248
14.2034
14.1911
14.1854
14.1843
14.1862
14.19
14.195
14.2004
14.206
14.2116
14.2165
14.7109
14.5642
14.4318
14.3141
14.211
14.1216
14.0447
13.9788
13.9225
13.8741
13.8324
13.7961
13.7643
13.7361
13.7109
13.6881
13.6674
13.6484
14.7089
14.5577
14.4176
14.2881
14.169
14.0598
13.9602
13.8695
13.7868
13.7116
13.643
13.5803
13.5228
13.4699
13.4211
13.376
13.3341
13.2956
14.7077
14.5544
14.4112
14.2771
14.1516
14.0343
13.9247
13.8223
13.7268
13.6376
13.5543
13.4765
13.4038
13.3357
13.2719
13.212
13.1558
13.1038
14.7067
14.5523
14.4076
14.2717
14.1438
14.0234
13.9099
13.8029
13.7021
13.6069
13.5171
13.4322
13.3521
13.2763
13.2047
13.1368
13.0728
13.0132
14.706
14.5508
14.4052
14.2683
14.1394
14.0177
13.9028
13.7941
13.6912
13.5938
13.5014
13.4138
13.3306
13.2516
13.1766
13.1053
13.0377
12.9747
14.7055
14.5497
14.4036
14.2662
14.1367
14.0144
13.8988
13.7893
13.6856
13.5873
13.4939
13.4052
13.3209
13.2408
13.1645
13.0919
13.023
12.9587
14.7053
14.5494
14.4031
14.2654
14.1356
14.013
13.8971
13.7874
13.6834
13.5848
13.4911
13.4021
13.3176
13.2372
13.1606
13.0879
13.0188
12.9544
14.7055
14.5497
14.4035
14.266
14.1363
14.014
13.8983
13.7889
13.6853
13.5872
13.4942
13.4059
13.3222
13.2428
13.1674
13.0958
13.028
12.9648
14.7059
14.5507
14.4051
14.2684
14.1398
14.0187
13.9048
13.7975
13.6964
13.6011
13.5113
13.4267
13.3468
13.2714
13.2002
13.133
13.0696
13.011
14.7068
14.5529
14.4093
14.2756
14.1511
14.0355
13.9282
13.8288
13.7365
13.6509
13.5715
13.4975
13.4287
13.3644
13.3043
13.2481
13.1955
13.1472
14.7086
14.5589
14.4228
14.3002
14.1906
14.0933
14.0071
13.9306
13.8626
13.8019
13.7473
13.698
13.653
13.6117
13.5735
13.538
13.505
13.4747
14.7142
14.5802
14.4709
14.3854
14.321
14.274
14.2406
14.2172
14.2011
14.1897
14.1814
14.1748
14.1691
14.1635
14.1577
14.1515
14.1448
14.138
14.7358
14.6588
14.6349
14.6533
14.7003
14.7637
14.8346
14.9064
14.9749
15.0378
15.0937
15.1425
15.184
15.2189
15.2476
15.2709
15.2896
15.3045
14.8205
14.9297
15.1379
15.3944
15.6598
15.9118
16.1393
16.3377
16.5066
16.6486
16.7671
16.8655
16.947
17.0144
17.0702
17.1163
17.1546
17.1865
15.1412
15.7854
16.5167
17.2063
17.7955
18.2807
18.6738
18.9894
19.2423
19.4454
19.6094
19.7431
19.8532
19.9449
20.0224
20.0889
20.1469
20.198
16.3188
18.2992
19.9617
21.2347
22.181
22.882
23.4045
23.8
24.1053
24.3458
24.5396
24.6999
24.8365
24.9566
25.0656
25.1674
25.2648
25.3595
20.7543
25.6371
28.692
30.5982
31.8392
32.6629
33.2218
33.6179
33.9166
34.16
34.3755
34.581
34.788
35.0037
35.2326
35.4769
35.7373
36.0129
43.961
54.4816
58.7072
60.4204
60.9756
60.9905
60.8461
60.7555
60.7859
60.9665
61.3064
61.8039
62.4518
63.2399
64.1565
65.1892
66.3233
67.5512
332.626
280.253
240.732
210.192
186.153
166.941
151.388
138.655
128.132
119.365
112.01
105.804
100.541
96.0605
92.2333
88.9562
86.1459
83.733
0.235803
0.334981
0.474806
0.61605
0.754146
0.893721
1.05348
1.2634
1.52293
1.83456
2.20719
2.65875
3.22669
3.87026
4.59939
5.42287
6.34549
7.37134
8.50525
9.75368
11.1258
12.6348
14.3004
16.1518
18.232
20.6033
23.351
26.5792
30.3782
35.1471
38.6289
42.166
45.8757
49.7703
53.853
58.1258
62.5904
67.2483
72.1004
77.1476
82.3903
87.8284
93.4615
99.289
105.31
111.522
117.923
124.512
131.284
138.237
145.366
152.667
160.135
167.766
175.553
183.491
191.573
199.795
208.15
216.632
225.236
233.957
242.79
251.733
260.783
269.941
279.207
288.586
298.084
307.709
317.475
327.398
337.498
347.8
358.334
369.136
380.245
391.708
403.577
415.909
428.769
442.225
456.353
471.232
486.947
503.588
521.248
540.023
560.014
581.322
604.049
628.3
654.178
681.785
711.221
742.582
775.962
811.447
849.117
889.047
931.301
975.936
1023
1072.55
1124.63
1179.3
1236.65
1296.85
1360.18
1427.15
1497.02
1568.52
1641.16
1714.3
1787.14
1858.71
1927.82
1993.07
2052.85
2105.35
2148.6
2180.53
2199.1
2202.45
2189.09
2158.11
2109.35
2043.66
1963.15
1871.88
1771.89
1670.22
1582.31
1499.25
1417.21
1336.81
1259.04
1184.69
1114.31
1048.2
986.479
929.141
876.059
827.042
781.858
740.248
701.946
666.682
634.197
604.248
576.608
551.065
527.426
505.515
485.173
466.256
448.633
432.19
416.822
402.436
388.948
376.284
364.375
353.16
342.583
332.592
323.14
314.181
305.673
297.573
289.837
282.418
275.263
268.311
261.578
254.951
248.271
241.234
233.427
222.352
0.834204
0.691178
0.71629
0.79352
0.915895
1.08383
1.30285
1.57583
1.90802
2.29578
2.74505
3.26128
3.84811
4.50414
5.22992
6.02628
6.89427
7.83547
8.85234
9.94849
11.129
12.4005
13.7717
15.2527
16.8545
18.587
20.4546
22.45
24.5484
26.7174
28.8649
31.0698
33.3578
35.7363
38.2078
40.7735
43.4344
46.191
49.0437
51.9929
55.0386
58.1808
61.4193
64.7537
68.1835
71.7077
75.3256
79.0358
82.8372
86.7281
90.707
94.7721
98.9215
103.153
107.465
111.855
116.321
120.861
125.473
130.156
134.908
139.728
144.615
149.571
154.595
159.688
164.855
170.098
175.422
180.833
186.34
191.952
197.681
203.54
209.545
215.714
222.066
228.624
235.412
242.458
249.789
257.437
265.434
273.815
282.615
291.869
301.617
311.894
322.737
334.183
346.267
359.021
372.478
386.664
401.606
417.323
433.833
451.149
469.278
488.225
507.99
528.571
549.964
572.168
595.185
619.025
643.712
669.289
695.825
723.408
752.287
781.66
811.271
840.874
870.163
898.767
926.244
952.079
975.688
996.427
1013.6
1026.48
1034.34
1036.51
1032.4
1021.61
1004
979.689
949.065
912.799
870.867
826.674
783.925
742.332
701.621
662.027
623.865
587.399
552.812
520.214
489.648
461.107
434.546
409.89
387.043
365.901
346.351
328.277
311.568
296.113
281.809
268.558
256.269
244.858
234.248
224.368
215.156
206.552
198.506
190.968
183.898
177.257
171.009
165.123
159.572
154.328
149.369
144.672
140.219
135.99
131.969
128.139
124.486
121.001
117.731
114.662
111.835
109.368
107.64
107.866
1.63641
1.17038
1.15945
1.26874
1.45181
1.69232
1.98163
2.32411
2.72376
3.18326
3.70502
4.29088
4.94211
5.65931
6.44276
7.29276
8.20992
9.19531
10.2505
11.3776
12.5793
13.8587
15.2191
16.6636
18.1945
19.8119
21.5126
23.2887
25.1291
27.0295
28.9873
31.0122
33.1106
35.2858
37.5396
39.8731
42.2871
44.7821
47.3586
50.0169
52.7572
55.5796
58.4841
61.4706
64.5386
67.688
70.9181
74.2285
77.6182
81.0866
84.6328
88.2558
91.9547
95.7283
99.5757
103.496
107.488
111.551
115.684
119.887
124.16
128.502
132.914
137.397
141.952
146.581
151.287
156.073
160.942
165.901
170.956
176.113
181.38
186.768
192.286
197.947
203.764
209.752
215.926
222.302
228.898
235.734
242.828
250.2
257.87
265.858
274.184
282.867
291.925
301.374
311.23
321.505
332.21
343.353
354.94
366.971
379.446
392.362
405.711
419.488
433.682
448.285
463.291
478.695
494.5
510.714
527.351
544.436
561.999
580.059
598.586
617.314
636.105
654.812
673.253
691.201
708.385
724.491
739.166
752.022
762.631
770.533
775.241
776.251
773.079
765.339
752.805
735.401
713.303
686.992
658.023
628.166
598.238
568.5
539.129
510.375
482.487
455.668
430.065
405.777
382.856
361.318
341.149
322.316
304.768
288.443
273.271
259.18
246.096
233.945
222.657
212.164
202.4
193.307
184.828
176.912
169.511
162.584
156.09
149.994
144.264
138.871
133.787
128.99
124.456
120.166
116.103
112.25
108.592
105.115
101.808
98.6596
95.6612
92.8079
90.1173
87.6039
85.3031
83.3035
81.8269
81.3469
2.75121
1.82332
1.75705
1.8872
2.10735
2.38797
2.72539
3.12026
3.57433
4.08927
4.66646
5.3069
6.01139
6.78053
7.61474
8.51453
9.48052
10.5135
11.6147
12.7851
14.0263
15.3395
16.7258
18.1863
19.7209
21.3292
23.0093
24.7587
26.5749
28.4577
30.4084
32.43
34.5251
36.6954
38.9424
41.2671
43.6702
46.1524
48.7142
51.3561
54.0784
56.8814
59.7653
62.73
65.7757
68.9021
72.1092
75.3966
78.7641
82.2112
85.7376
89.3426
93.0259
96.7869
100.625
104.54
108.532
112.599
116.742
120.962
125.257
129.628
134.076
138.602
143.206
147.892
152.659
157.512
162.453
167.485
172.613
177.842
183.177
188.623
194.188
199.878
205.703
211.67
217.788
224.066
230.515
237.144
243.963
250.982
258.211
265.658
273.331
281.238
289.384
297.775
306.412
315.297
324.429
333.804
343.418
353.264
363.333
373.616
384.101
394.779
405.641
416.68
427.892
439.278
450.845
462.605
474.577
486.782
499.242
512.029
525.025
538.147
551.328
564.483
577.501
590.235
602.511
614.129
624.865
634.475
642.681
649.156
653.513
655.277
653.898
648.838
639.72
626.356
608.938
588.51
566.147
542.586
518.46
494.137
469.923
446.089
422.863
400.424
378.901
358.384
338.928
320.558
303.276
287.065
271.894
257.721
244.497
232.169
220.681
209.977
200.001
190.698
182.019
173.912
166.334
159.242
152.596
146.36
140.503
134.993
129.804
124.91
120.289
115.92
111.784
107.865
104.148
100.617
97.2615
94.0691
91.0301
88.1358
85.3796
82.7581
80.2775
77.9558
75.8184
73.9236
72.3931
71.4093
4.13866
2.5941
2.42728
2.53773
2.76605
3.0732
3.44639
3.88135
4.37705
4.93371
5.55197
6.23254
6.97619
7.78363
8.65562
9.59291
10.5963
11.6668
12.8053
14.0127
15.2899
16.6377
18.0568
19.5476
21.1103
22.7448
24.4509
26.2282
28.0767
29.9973
31.9911
34.0598
36.205
38.4281
40.7302
43.1125
45.5756
48.1205
50.7478
53.458
56.2517
59.1293
62.0911
65.1374
68.2684
71.4843
74.785
78.1707
81.6412
85.1964
88.8363
92.5606
96.369
100.261
104.238
108.298
112.441
116.668
120.978
125.371
129.848
134.408
139.053
143.782
148.597
153.498
158.486
163.563
168.731
173.991
179.346
184.797
190.347
196
201.757
207.623
213.601
219.694
225.904
232.237
238.694
245.278
251.992
258.838
265.816
272.927
280.17
287.543
295.043
302.666
310.406
318.255
326.204
334.244
342.364
350.551
358.794
367.08
375.398
383.74
392.098
400.471
408.859
417.27
425.72
434.23
442.828
451.547
460.423
469.505
478.723
488.051
497.46
506.909
516.332
525.64
534.723
543.465
551.744
559.439
566.405
572.454
577.308
580.513
581.404
579.153
573.205
563.29
549.865
533.76
515.512
495.732
475.108
454.042
432.897
411.968
391.477
371.592
352.434
334.091
316.621
300.055
284.407
269.67
255.827
242.848
230.698
219.335
208.714
198.789
189.514
180.843
172.732
165.139
158.024
151.351
145.085
139.194
133.65
128.425
123.495
118.838
114.434
110.263
106.31
102.558
98.9944
95.6062
92.3823
89.3124
86.3878
83.6012
80.947
78.4222
76.0299
73.7842
71.7048
69.8308
68.2319
66.9844
5.62056
3.39732
3.078
3.14686
3.37541
3.70094
4.10073
4.56564
5.09203
5.6788
6.32597
7.03414
7.80418
8.63712
9.53407
10.4962
11.5247
12.6206
13.7852
15.0194
16.3241
17.7003
19.1485
20.6695
22.2638
23.9319
25.6744
27.4918
29.385
31.3551
33.4032
35.5309
37.7394
40.03
42.404
44.8623
47.406
50.0361
52.7531
55.5581
58.4515
61.434
64.5062
67.6684
70.9211
74.2646
77.6991
81.2249
84.8421
88.5509
92.3512
96.2431
100.227
104.302
108.468
112.726
117.075
121.516
126.048
130.671
135.385
140.19
145.086
150.073
155.152
160.322
165.584
170.937
176.382
181.919
187.548
193.27
199.083
204.989
210.986
217.075
223.254
229.523
235.88
242.323
248.85
255.457
262.141
268.897
275.719
282.6
289.533
296.508
303.515
310.543
317.58
324.61
331.62
338.594
345.517
352.374
359.15
365.832
372.41
378.877
385.228
391.465
397.596
403.635
409.606
415.539
421.473
427.453
433.53
439.734
446.025
452.397
458.846
465.356
471.891
478.402
484.829
491.122
497.25
503.213
509.027
514.696
520.151
524.66
527.432
527.704
524.845
518.638
509.362
497.259
482.699
466.187
448.307
429.592
410.617
391.717
373.116
354.977
337.417
320.525
304.364
288.973
274.375
260.576
247.567
235.33
223.838
213.06
202.959
193.495
184.629
176.321
168.533
161.226
154.366
147.919
141.854
136.143
130.757
125.674
120.87
116.325
112.021
107.939
104.065
100.384
96.8836
93.5521
90.3791
87.3554
84.4729
81.7251
79.1069
76.616
74.2541
72.0309
69.9623
68.0749
66.4096
64.9998
7.00116
4.09983
3.64577
3.67872
3.90489
4.24242
4.6606
5.14624
5.69353
6.30022
6.96584
7.69089
8.4764
9.3237
10.2343
11.2098
12.2518
13.3617
14.5409
15.7908
17.1125
18.5072
19.9757
21.5192
23.1384
24.8345
26.6084
28.4611
30.394
32.4083
34.5053
36.6866
38.9533
41.307
43.7489
46.2801
48.9019
51.6152
54.4211
57.3204
60.3141
63.4028
66.5874
69.8684
73.2464
76.722
80.2955
83.9675
87.7382
91.6079
95.5768
99.6451
103.813
108.08
112.447
116.914
121.481
126.146
130.911
135.776
140.739
145.8
150.96
156.217
161.571
167.022
172.568
178.208
183.942
189.768
195.683
201.688
207.778
213.952
220.206
226.538
232.942
239.414
245.949
252.54
259.181
265.864
272.579
279.317
286.066
292.816
299.55
306.256
312.917
319.516
326.035
332.454
338.755
344.917
350.922
356.75
362.387
367.816
373.028
378.017
382.779
387.32
391.651
395.792
399.772
403.629
407.41
411.169
414.969
418.824
422.696
426.579
430.473
434.371
438.255
442.099
445.875
449.583
453.271
457.062
461.156
465.83
470.996
475.943
480.058
482.657
483.104
480.976
475.983
468.041
457.315
444.186
429.175
412.857
395.813
378.565
361.482
344.723
328.407
312.622
297.44
282.912
269.069
255.93
243.498
231.764
220.712
210.316
200.547
191.372
182.757
174.667
167.068
159.924
153.204
146.878
140.917
135.293
129.982
124.962
120.211
115.709
111.44
107.388
103.536
99.8735
96.3867
93.065
89.8988
86.8795
83.9995
81.2529
78.635
76.1437
73.7799
71.5502
69.4669
67.548
65.8174
64.2902
8.10376
4.66924
4.11328
4.11638
4.33736
4.68047
5.10895
5.60649
6.16556
6.78296
7.45777
8.19038
8.98195
9.83405
10.7485
11.7272
12.7721
13.8851
15.0678
16.3218
17.6487
19.05
20.5268
22.0806
23.7127
25.4244
27.217
29.0921
31.0511
33.0955
35.2268
37.4466
39.7564
42.1578
44.652
47.2406
49.9248
52.7058
55.5849
58.5632
61.6418
64.8215
68.1034
71.4883
74.9769
78.5701
82.2684
86.0725
89.983
94.0001
98.1245
102.356
106.696
111.144
115.699
120.363
125.135
130.015
135.002
140.097
145.299
150.607
156.021
161.539
167.16
172.883
178.707
184.628
190.646
196.756
202.957
209.245
215.615
222.062
228.582
235.169
241.815
248.514
255.256
262.032
268.833
275.645
282.457
289.255
296.024
302.746
309.406
315.982
322.456
328.805
335.007
341.04
346.879
352.502
357.885
363.007
367.848
372.394
376.631
380.553
384.158
387.451
390.443
393.158
395.628
397.893
400.004
402.021
404.013
405.979
407.855
409.617
411.248
412.727
414.032
415.139
416.032
416.737
417.364
418.144
419.464
421.896
425.363
429.543
434.152
438.71
442.378
444.32
443.817
440.407
433.959
424.656
412.926
399.337
384.5
368.992
353.325
337.826
322.622
307.807
293.462
279.652
266.423
253.806
241.818
230.462
219.73
209.605
200.065
191.084
182.631
174.677
167.189
160.138
153.493
147.227
141.312
135.724
130.439
125.435
120.694
116.196
111.926
107.867
104.006
100.329
96.827
93.4878
90.3025
87.2631
84.3625
81.595
78.9564
76.4445
74.0597
71.8061
69.6928
67.7319
65.9369
64.3143
8.98274
5.11823
4.47903
4.45422
4.66583
5.00758
5.43821
5.93903
6.50118
7.12068
7.79621
8.52801
9.31723
10.1656
11.075
12.0477
13.0857
14.1913
15.3663
16.6128
17.9325
19.3272
20.7986
22.3483
23.9781
25.6895
27.4843
29.3642
31.3309
33.3862
35.5319
37.7696
40.1011
42.5281
45.0522
47.675
50.3981
53.223
56.1511
59.1836
62.3221
65.5676
68.9214
72.3845
75.9581
79.6431
83.4404
87.3509
91.3753
95.5144
99.7687
104.139
108.625
113.228
117.948
122.785
127.739
132.809
137.997
143.3
148.72
154.254
159.901
165.661
171.532
177.511
183.596
189.786
196.075
202.461
208.94
215.506
222.154
228.878
235.671
242.525
249.431
256.379
263.359
270.359
277.366
284.366
291.343
298.282
305.163
311.969
318.679
325.27
331.72
338.006
344.101
349.98
355.616
360.984
366.057
370.812
375.225
379.279
382.962
386.264
389.181
391.717
393.883
395.7
397.201
398.426
399.426
400.262
400.999
401.62
402.013
402.114
401.865
401.205
400.073
398.414
396.193
393.428
390.259
386.99
384.188
382.693
382.68
384.444
388.257
393.669
399.752
405.381
409.419
410.924
409.322
404.48
396.645
386.321
374.138
360.733
346.685
332.492
318.415
304.562
291.029
277.898
265.234
253.087
241.487
230.45
219.981
210.072
200.709
191.87
183.532
175.668
168.25
161.252
154.645
148.404
142.504
136.921
131.633
126.62
121.864
117.347
113.052
108.967
105.076
101.369
97.8338
94.4608
91.2412
88.1672
85.2322
82.4307
79.7587
77.214
74.7964
72.5084
70.3557
68.3465
66.4877
64.7822
9.62236
5.44567
4.74257
4.69202
4.89022
5.22392
5.64883
6.14468
6.70166
7.31517
7.98352
8.70671
9.48577
10.3223
11.2184
12.1763
13.1981
14.2861
15.4426
16.6698
17.9696
19.3443
20.7957
22.3259
23.9368
25.6305
27.4088
29.2739
31.2277
33.2721
35.4093
37.6412
39.9697
42.3969
44.9245
47.5546
50.2888
53.129
56.0769
59.1341
62.3023
65.583
68.9777
72.4879
76.1149
79.8601
83.7245
87.7095
91.8162
96.0454
100.398
104.875
109.477
114.205
119.059
124.039
129.145
134.378
139.738
145.223
150.834
156.569
162.427
168.406
174.505
180.721
187.051
193.492
200.041
206.691
213.44
220.28
227.205
234.208
241.281
248.414
255.596
262.818
270.066
277.327
284.586
291.828
299.036
306.192
313.277
320.269
327.148
333.891
340.473
346.87
353.057
359.005
364.687
370.077
375.146
379.867
384.215
388.17
391.72
394.859
397.576
399.871
401.755
403.246
404.376
405.183
405.719
406.047
406.216
406.168
405.742
404.816
403.272
400.979
397.799
393.608
388.302
381.857
374.388
366.196
357.995
350.738
345.213
342.512
343.344
347.542
354.382
362.662
370.857
377.436
381.209
381.534
378.334
371.963
363.026
352.211
340.181
327.517
314.692
301.888
289.225
276.807
264.726
253.051
241.833
231.104
220.883
211.171
201.964
193.247
185.003
177.21
169.843
162.879
156.292
150.059
144.157
138.564
133.259
128.223
123.439
118.889
114.56
110.437
106.506
102.758
99.1806
95.765
92.5025
89.3859
86.4087
83.5657
80.8531
78.2683
75.8109
73.4819
71.2844
69.2236
67.3022
65.5216
10.0202
5.65314
4.90653
4.8335
5.01531
5.33519
5.74741
6.23085
6.77513
7.37521
8.02903
8.7363
9.4978
10.315
11.1898
12.1243
13.1207
14.1815
15.309
16.5054
17.7731
19.1144
20.5315
22.0268
23.6023
25.2605
27.0036
28.8338
30.7535
32.7648
34.8701
37.0717
39.3719
41.7727
44.2766
46.8856
49.602
52.4278
55.3651
58.416
61.5824
64.8664
68.2697
71.7943
75.4418
79.2141
83.1127
87.1392
91.2951
95.5818
100
104.552
109.238
114.06
119.017
124.111
129.341
134.708
140.213
145.854
151.631
157.543
163.589
169.767
176.075
182.511
189.07
195.75
202.546
209.453
216.466
223.577
230.78
238.066
245.426
252.851
260.327
267.844
275.389
282.945
290.499
298.033
305.53
312.971
320.336
327.605
334.755
341.766
348.614
355.275
361.724
367.936
373.883
379.54
384.878
389.869
394.481
398.692
402.494
405.897
408.87
411.406
413.515
415.214
416.53
417.503
418.188
418.657
418.928
418.859
418.263
416.951
414.738
411.417
406.745
400.491
392.478
382.625
371.003
357.775
343.386
329.349
316.904
307.572
302.571
302.563
307.487
316.402
327.568
338.845
348.24
354.355
356.566
354.925
349.933
342.299
332.771
322.032
310.672
299.075
287.4
275.784
264.349
253.191
242.387
231.988
222.027
212.521
203.475
194.882
186.731
179.006
171.687
164.753
158.182
151.953
146.044
140.436
135.109
130.045
125.228
120.643
116.274
112.108
108.134
104.341
100.717
97.2553
93.9464
90.7835
87.7605
84.8724
82.1154
79.4868
76.9857
74.6122
72.3671
70.2536
68.2714
66.4218
10.1857
5.74641
4.97678
4.88563
5.04947
5.35124
5.74514
6.20996
6.73508
7.31518
7.94787
8.63251
9.36958
10.1603
11.0063
11.9096
12.8723
13.8968
14.9854
16.1405
17.3647
18.6603
20.0298
21.4757
23.0005
24.6067
26.2968
28.0734
29.9391
31.8965
33.948
36.0964
38.3442
40.694
43.1485
45.7101
48.3815
51.1652
54.0637
57.0794
60.215
63.4726
66.8549
70.364
74.0022
77.7718
81.6749
85.7135
89.8896
94.2051
98.6616
103.261
108.004
112.893
117.928
123.111
128.442
133.922
139.55
145.327
151.252
157.325
163.543
169.906
176.411
183.055
189.835
196.747
203.786
210.947
218.224
225.609
233.095
240.673
248.333
256.063
263.853
271.688
279.556
287.44
295.326
303.194
311.029
318.81
326.519
334.135
341.639
349.01
356.229
363.272
370.121
376.752
383.144
389.267
395.107
400.63
405.785
410.547
414.899
418.837
422.349
425.436
428.108
430.382
432.286
433.86
435.175
436.296
437.128
437.413
436.955
435.536
432.92
428.842
422.972
414.925
404.551
391.713
376.389
358.786
339.442
319.525
300.291
283.319
270.338
263.025
262.531
268.871
280.629
295.273
309.913
322.118
330.4
334.266
333.97
330.177
323.699
315.33
305.771
295.596
285.076
274.39
263.698
253.135
242.803
232.778
223.114
213.842
204.978
196.527
188.484
180.838
173.576
166.68
160.131
153.91
147.999
142.38
137.033
131.944
127.097
122.476
118.068
113.862
109.845
106.006
102.337
98.829
95.4735
92.264
89.1948
86.2609
83.4586
80.7851
78.2389
75.8195
73.5263
71.3604
69.32
67.4064
10.1328
5.7338
4.9615
4.85772
5.00367
5.28481
5.65652
6.09807
6.59895
7.1537
7.75967
8.41592
9.12258
9.88057
10.6913
11.5564
12.4781
13.4585
14.4999
15.6047
16.7756
18.015
19.3256
20.71
22.171
23.7113
25.3337
27.0409
28.836
30.7218
32.7012
34.7773
36.9529
39.2312
41.6152
44.1079
46.7123
49.4316
52.2687
55.2267
58.3084
61.517
64.8554
68.3266
71.9334
75.6785
79.5648
83.5948
87.7712
92.0962
96.5723
101.201
105.986
110.927
116.026
121.285
126.705
132.287
138.03
143.936
150.003
156.232
162.62
169.166
175.868
182.723
189.727
196.877
204.166
211.59
219.141
226.813
234.596
242.482
250.459
258.517
266.642
274.822
283.041
291.284
299.535
307.775
315.988
324.155
332.257
340.275
348.192
355.991
363.657
371.171
378.519
385.688
392.67
399.413
405.871
412.009
417.79
423.188
428.185
432.771
436.943
440.701
444.057
447.026
449.63
451.912
453.959
455.773
457.122
457.678
457.241
455.564
452.376
447.376
440.233
430.583
418.229
403.012
384.915
364.173
341.317
317.207
292.889
269.659
249.147
233.378
224.596
224.503
233.148
248.45
266.889
284.805
299.465
309.469
314.581
315.295
312.443
306.921
299.556
291.061
281.894
272.293
262.468
252.595
242.813
233.226
223.911
214.915
206.27
197.99
190.081
182.537
175.351
168.509
161.997
155.797
149.895
144.274
138.917
133.81
128.939
124.289
119.849
115.607
111.551
107.672
103.961
100.409
97.0097
93.7561
90.6427
87.6646
84.8182
82.1007
79.5101
77.0454
74.7051
72.4884
70.393
68.4202
9.87564
5.62486
4.87032
4.76062
4.89058
5.15056
5.49815
5.91363
6.38686
6.91242
7.48753
8.11099
8.78268
9.50322
10.2737
11.0957
11.9709
12.9014
13.8895
14.9376
16.0482
17.2239
18.4676
19.782
21.17
22.6347
24.179
25.8061
27.5192
29.3216
31.2167
33.2078
35.2983
37.4919
39.7921
42.2025
44.7267
47.3685
50.1317
53.0199
56.0361
59.1842
62.4681
65.8914
69.4576
73.1702
77.0327
81.0484
85.2204
89.5518
94.0456
98.7043
103.531
108.527
113.695
119.036
124.553
130.245
136.115
142.162
148.385
154.785
161.36
168.108
175.028
182.115
189.366
196.776
204.34
212.052
219.905
227.891
236
244.222
252.547
260.962
269.455
278.01
286.613
295.248
303.898
312.545
321.172
329.762
338.296
346.757
355.131
363.402
371.561
379.6
387.515
395.304
402.906
410.271
417.355
424.122
430.541
436.584
442.234
447.479
452.312
456.736
460.757
464.38
467.624
470.546
473.217
475.524
477.063
477.606
476.924
474.757
470.825
464.813
456.405
445.254
431.095
413.782
393.304
369.919
344.182
316.929
289.127
261.845
236.33
214.106
197.276
188.519
190.095
202.023
221.357
243.496
264.151
280.552
291.601
297.408
298.72
296.506
291.718
285.196
277.598
269.251
260.427
251.353
242.211
233.138
224.233
215.568
207.187
199.119
191.378
183.967
176.883
170.12
163.665
157.506
151.629
146.021
140.668
135.556
130.672
126.004
121.54
117.27
113.183
109.271
105.524
101.935
98.497
95.2039
92.0503
89.0317
86.1444
83.3854
80.7527
78.2448
75.8599
73.5951
71.4483
69.4213
9.42955
5.43041
4.7142
4.60634
4.72397
4.96431
5.28797
5.67664
6.12083
6.61535
7.15742
7.74572
8.37993
9.06051
9.78852
10.5652
11.3916
12.2697
13.2019
14.1904
15.2379
16.3471
17.5209
18.7621
20.074
21.4598
22.9228
24.4665
26.0945
27.8104
29.6182
31.5216
33.5248
35.6318
37.8469
40.1742
42.6181
45.1829
47.8732
50.6931
53.6472
56.74
59.9758
63.3592
66.8945
70.5859
74.4377
78.4539
82.6385
86.9952
91.5275
96.2387
101.132
106.21
111.475
116.93
122.575
128.413
134.445
140.67
147.089
153.7
160.504
167.496
174.675
182.038
189.579
197.294
205.177
213.221
221.417
229.759
238.235
246.835
255.546
264.357
273.253
282.22
291.241
300.3
309.381
318.465
327.537
336.577
345.571
354.503
363.36
372.133
380.815
389.41
397.928
406.317
414.52
422.488
430.181
437.561
444.597
451.264
457.542
463.416
468.879
473.925
478.554
482.762
486.574
490.054
493.187
495.72
497.244
497.565
496.449
493.635
488.84
481.724
471.978
459.176
442.984
423.254
400.076
373.839
345.218
315.118
284.562
254.6
226.3
200.64
178.886
163.051
156.161
160.94
177.109
200.604
225.826
248.227
265.365
276.631
282.521
283.999
282.121
277.859
272.032
265.103
257.414
249.251
240.842
232.361
223.937
215.662
207.599
199.789
192.257
185.015
178.067
171.411
165.04
158.945
153.116
147.542
142.21
137.109
132.227
127.555
123.08
118.793
114.686
110.75
106.976
103.357
99.8882
96.5623
93.3745
90.3207
87.397
84.6008
81.9297
79.3819
76.9554
74.6467
72.4532
70.377
8.84236
5.17098
4.50798
4.40885
4.51886
4.74301
5.04522
5.40885
5.82525
6.28962
6.79929
7.3529
7.94999
8.59074
9.27587
10.0065
10.7839
11.6099
12.4868
13.4168
14.4026
15.447
16.5531
17.7239
18.9629
20.2737
21.6599
23.1254
24.6743
26.3109
28.0394
29.8645
31.7909
33.8233
35.9668
38.2263
40.607
43.1141
45.753
48.5289
51.4472
54.5133
57.7325
61.1102
64.6516
68.3619
72.2461
76.3091
80.5554
84.9897
89.6159
94.438
99.4595
104.684
110.113
115.75
121.596
127.654
133.923
140.405
147.097
154
161.112
168.429
175.949
183.666
191.576
199.673
207.95
216.399
225.011
233.776
242.683
251.721
260.877
270.136
279.485
288.907
298.386
307.906
317.449
326.998
336.537
346.05
355.521
364.938
374.291
383.575
392.791
401.951
411.04
419.997
428.767
437.305
445.571
453.53
461.152
468.41
475.283
481.757
487.818
493.455
498.658
503.424
507.789
511.79
515.273
517.78
519.094
518.991
517.215
513.495
507.556
498.971
487.271
472.04
452.999
430.094
403.572
374.003
342.251
309.377
276.51
244.719
214.917
187.835
164.19
144.932
132.05
128.951
138.548
159.67
186.89
214.002
236.789
253.51
264.15
269.547
270.81
269.022
265.137
259.765
253.33
246.179
238.593
230.783
222.909
215.087
207.397
199.896
192.619
185.588
178.813
172.298
166.042
160.04
154.284
148.766
143.477
138.407
133.546
128.885
124.415
120.126
116.012
112.063
108.273
104.636
101.144
97.7937
94.5793
91.497
88.5433
85.7153
83.0108
80.4278
77.964
75.6161
73.3809
71.2608
8.16631
4.86313
4.26495
4.18139
4.28957
4.50268
4.78802
5.13066
5.52291
5.96048
6.44095
6.96301
7.52618
8.13059
8.77687
9.46609
10.1997
10.9796
11.8079
12.6871
13.62
14.6097
15.6595
16.7728
17.9534
19.2052
20.5326
21.9399
23.4319
25.0135
26.6898
28.4662
30.3484
32.342
34.453
36.6874
39.0515
41.5516
44.194
46.9851
49.9313
53.0392
56.3151
59.7654
63.3963
67.2139
71.2241
75.4325
79.8446
84.4653
89.2993
94.3506
99.6231
105.12
110.844
116.797
122.981
129.397
136.045
142.924
150.033
157.37
164.932
172.713
180.71
188.917
197.326
205.931
214.721
223.688
232.821
242.11
251.541
261.101
270.776
280.55
290.409
300.335
310.312
320.323
330.351
340.38
350.394
360.378
370.322
380.215
390.051
399.831
409.561
419.256
428.862
438.327
447.604
456.652
465.434
473.916
482.071
489.873
497.303
504.342
510.975
517.182
522.948
528.279
533.192
537.581
541.062
543.299
544.092
543.182
540.268
535.062
527.158
516.067
501.319
482.552
459.601
432.593
402.003
368.648
333.612
298.113
263.359
230.404
200.064
172.883
149.186
129.324
114.144
105.871
108.423
124.232
150.34
180.045
207.346
229.014
244.231
253.537
258.004
258.789
256.95
253.229
248.133
242.077
235.39
228.323
221.065
213.757
206.498
199.357
192.383
185.606
179.045
172.709
166.602
160.724
155.07
149.636
144.414
139.398
134.578
129.948
125.5
121.226
117.119
113.172
109.379
105.734
102.231
98.8662
95.6342
92.5317
89.5554
86.7025
83.9709
81.3583
78.8627
76.4812
74.2097
72.0514
7.41937
4.513
3.99361
3.9358
4.05133
4.26231
4.53948
4.86968
5.24619
5.66532
6.12501
6.62424
7.16275
7.74085
8.35939
9.01967
9.72341
10.4727
11.2701
12.1185
13.021
13.981
15.0025
16.0893
17.246
18.4771
19.7877
21.1831
22.6689
24.2512
25.9362
27.7307
29.6414
31.6756
33.8404
36.1433
38.5921
41.1943
43.9577
46.8901
49.9993
53.293
56.7787
60.464
64.3562
68.4622
72.7888
77.3421
82.1278
87.1511
92.4165
97.9277
103.688
109.7
115.965
122.484
129.257
136.284
143.562
151.09
158.864
166.877
175.125
183.601
192.296
201.202
210.309
219.605
229.081
238.723
248.519
258.456
268.518
278.692
288.961
299.308
309.717
320.17
330.651
341.144
351.634
362.107
372.549
382.95
393.303
403.603
413.851
424.055
434.232
444.342
454.341
464.19
473.85
483.285