/*--------------------------------*- C++ -*----------------------------------*\
| =========                 |                                                 |
| \\      /  F ield         | OpenFOAM: The Open Source CFD Toolbox           |
|  \\    /   O peration     | Version:  1.4.2                                 |
|   \\  /    A nd           | Web:      http://www.openfoam.org               |
|    \\/     M anipulation  |                                                 |
\*---------------------------------------------------------------------------*/
FoamFile
{
    version     2.0;
    format      ascii;
    class       volScalarField;
    object      k;
    location    "500";
}
// * * * * * * * * * * * * * * * * * * * * * * * * * * * * * * * * * * * * * //

dimensions      [0 2 -2 0 0 0 0];

internalField   nonuniform List<scalar> 
12225
(
0.315115
0.271063
0.237884
0.212504
0.192898
0.177688
0.165903
0.156843
0.149987
0.144944
0.141407
0.139134
0.137929
0.137627
0.138092
0.139202
0.140857
0.143161
0.365357
0.357609
0.353826
0.353684
0.356735
0.362615
0.371001
0.381596
0.394133
0.408361
0.424043
0.44095
0.458858
0.477551
0.49681
0.516415
0.536062
0.556325
0.370187
0.364636
0.360183
0.356897
0.354767
0.35374
0.353744
0.354697
0.356514
0.359111
0.362409
0.366326
0.370781
0.375687
0.380947
0.386435
0.391963
0.397382
0.371735
0.367477
0.363487
0.359996
0.357015
0.354545
0.352573
0.35107
0.350001
0.349327
0.349008
0.349005
0.349277
0.349786
0.350484
0.35132
0.35223
0.353177
0.372438
0.369049
0.365589
0.362326
0.359333
0.356628
0.354214
0.352078
0.350205
0.348577
0.347174
0.345974
0.344955
0.344095
0.343369
0.342753
0.342223
0.341768
0.37275
0.369942
0.366991
0.364057
0.361248
0.358607
0.35615
0.353881
0.351794
0.349879
0.348126
0.346523
0.345058
0.343716
0.342486
0.341353
0.340308
0.339353
0.372878
0.37041
0.367852
0.365266
0.362719
0.360254
0.357899
0.355669
0.353571
0.351602
0.349758
0.348033
0.34642
0.34491
0.343495
0.342168
0.340924
0.339776
0.372918
0.370598
0.368257
0.365904
0.363573
0.361291
0.359081
0.356957
0.35493
0.353004
0.351179
0.349453
0.347821
0.34628
0.344823
0.343445
0.342145
0.340937
0.372932
0.370687
0.368472
0.366274
0.364106
0.361978
0.359905
0.357899
0.355966
0.354113
0.352343
0.350655
0.349049
0.347521
0.346068
0.344687
0.343376
0.342153
0.372937
0.37073
0.368594
0.366508
0.364468
0.362477
0.360537
0.358655
0.356834
0.355079
0.353393
0.351775
0.350226
0.348745
0.34733
0.345978
0.344689
0.343482
0.372937
0.370745
0.368651
0.366632
0.364681
0.362792
0.360961
0.359189
0.357476
0.355823
0.354231
0.352699
0.351227
0.349814
0.348458
0.347159
0.345916
0.344749
0.372936
0.370747
0.368669
0.366684
0.364783
0.362957
0.361201
0.359511
0.357884
0.356317
0.354809
0.353358
0.351964
0.350623
0.349335
0.348099
0.346915
0.345801
0.372935
0.370745
0.36867
0.366696
0.364817
0.363023
0.361308
0.359667
0.358094
0.356586
0.35514
0.353752
0.352419
0.35114
0.349912
0.348734
0.347606
0.346545
0.372936
0.370742
0.368665
0.366693
0.364819
0.363036
0.361338
0.359719
0.358173
0.356697
0.355285
0.353934
0.352641
0.351403
0.350217
0.34908
0.347994
0.346975
0.372939
0.370742
0.368661
0.366686
0.364811
0.36303
0.361335
0.359721
0.358185
0.356719
0.355322
0.353987
0.352713
0.351495
0.35033
0.349216
0.348155
0.34716
0.372943
0.370744
0.36866
0.366683
0.364805
0.36302
0.361324
0.359709
0.358173
0.356709
0.355313
0.353983
0.352713
0.351501
0.350344
0.349239
0.348187
0.347203
0.372948
0.370748
0.368662
0.366682
0.364802
0.363014
0.361315
0.359698
0.358159
0.356693
0.355295
0.353963
0.352693
0.35148
0.350323
0.349219
0.348169
0.347187
0.372951
0.370752
0.368664
0.366683
0.3648
0.363011
0.36131
0.35969
0.358149
0.35668
0.35528
0.353945
0.352672
0.351457
0.350297
0.34919
0.348137
0.347153
0.372948
0.370748
0.368661
0.36668
0.364797
0.363007
0.361304
0.359683
0.358138
0.356666
0.355262
0.353922
0.352643
0.351421
0.350254
0.34914
0.348079
0.347087
0.372943
0.370743
0.368657
0.366675
0.364791
0.362999
0.361291
0.359664
0.358111
0.356628
0.355211
0.353857
0.352562
0.351323
0.350137
0.349002
0.34792
0.346907
0.372938
0.370739
0.368652
0.366666
0.364775
0.36297
0.361246
0.359597
0.358018
0.356505
0.355054
0.353662
0.352326
0.351044
0.349814
0.348634
0.347507
0.346448
0.372934
0.370732
0.368636
0.366633
0.364714
0.362871
0.361098
0.359391
0.357746
0.356161
0.354635
0.353164
0.351748
0.350385
0.349075
0.347816
0.346611
0.345478
0.372927
0.37071
0.368581
0.366521
0.364523
0.362583
0.360698
0.358868
0.357095
0.355378
0.35372
0.35212
0.350578
0.349095
0.347669
0.346301
0.344994
0.343767
0.37291
0.370639
0.368409
0.366206
0.364033
0.361897
0.359806
0.35777
0.355794
0.353885
0.352045
0.350278
0.348583
0.34696
0.345408
0.343927
0.342518
0.341201
0.372856
0.37043
0.367958
0.365458
0.362967
0.360513
0.35812
0.355805
0.353579
0.351449
0.349417
0.347482
0.345643
0.343898
0.342243
0.340675
0.339193
0.337816
0.372693
0.369884
0.366926
0.363921
0.360961
0.358091
0.35534
0.352723
0.350247
0.347912
0.345717
0.343656
0.341723
0.339914
0.33822
0.336635
0.335155
0.333794
0.37223
0.3686
0.364818
0.361097
0.357538
0.354186
0.351061
0.348166
0.345498
0.343049
0.340807
0.338762
0.336899
0.335204
0.333666
0.33227
0.331007
0.329879
0.370946
0.365685
0.36055
0.355802
0.351491
0.347645
0.344266
0.341334
0.338817
0.336681
0.334889
0.333409
0.332209
0.331259
0.330532
0.330003
0.329648
0.329457
0.366354
0.35712
0.349251
0.3429
0.337989
0.334393
0.331964
0.330548
0.330005
0.330213
0.331065
0.332469
0.334344
0.336621
0.339238
0.342142
0.345278
0.348642
0.329178
0.293648
0.265348
0.242403
0.223549
0.207891
0.194769
0.183689
0.174273
0.16623
0.15933
0.153389
0.148259
0.143821
0.139975
0.13664
0.133747
0.131237
0.00462807
0.00612484
0.00772781
0.00919284
0.0105192
0.0117787
0.0131408
0.0148269
0.0167852
0.0189925
0.021471
0.024291
0.0276144
0.0311562
0.0349355
0.0389686
0.0432494
0.0477698
0.0525253
0.0575181
0.0627587
0.068268
0.0740811
0.0802519
0.0868603
0.0940238
0.101921
0.110845
0.121356
0.134477
0.143312
0.151895
0.16062
0.169522
0.178602
0.187856
0.19728
0.206869
0.216619
0.226524
0.236579
0.246779
0.257117
0.267588
0.278184
0.288899
0.299726
0.310658
0.321686
0.332802
0.343999
0.355268
0.366599
0.377985
0.389416
0.400884
0.412381
0.423897
0.435425
0.446958
0.458488
0.47001
0.48152
0.493014
0.504491
0.51595
0.527395
0.53883
0.550263
0.561705
0.573171
0.584677
0.596247
0.607907
0.619688
0.631626
0.643761
0.656138
0.668807
0.681822
0.69524
0.709123
0.723536
0.738546
0.754222
0.770633
0.787849
0.80594
0.824974
0.845016
0.86613
0.888373
0.911801
0.93646
0.962394
0.989637
1.01822
1.04816
1.07947
1.11216
1.14622
1.18163
1.21839
1.25646
1.29583
1.33648
1.37842
1.42168
1.46638
1.51276
1.56083
1.60927
1.65776
1.70592
1.75328
1.7993
1.84332
1.88459
1.92225
1.95533
1.98279
2.00351
2.01635
2.02021
2.01415
1.99744
1.96969
1.931
1.88209
1.82442
1.75989
1.69203
1.62901
1.57089
1.51253
1.45404
1.39614
1.33951
1.28467
1.232
1.18175
1.13406
1.089
1.04655
1.00665
0.969221
0.934135
0.901265
0.870472
0.841617
0.814563
0.78918
0.765341
0.742928
0.72183
0.701947
0.683183
0.665452
0.648676
0.632783
0.617709
0.603392
0.589779
0.576819
0.564465
0.552674
0.541405
0.530618
0.520273
0.510332
0.500751
0.491481
0.482467
0.473645
0.465031
0.456495
0.447844
0.438708
0.428568
0.414292
0.00676967
0.0117007
0.0157106
0.0193322
0.0228733
0.0265933
0.0306547
0.0349999
0.039724
0.044801
0.0503021
0.0562686
0.0627141
0.0696259
0.0769887
0.0847808
0.0929825
0.101579
0.110559
0.119919
0.12966
0.139789
0.150316
0.161258
0.17263
0.184443
0.196695
0.209358
0.222396
0.235733
0.249077
0.262623
0.276431
0.290514
0.304872
0.319501
0.334397
0.349552
0.36496
0.380615
0.396507
0.412629
0.428971
0.445525
0.46228
0.479226
0.496352
0.513646
0.531097
0.548692
0.566417
0.58426
0.602206
0.620241
0.638351
0.656521
0.674735
0.69298
0.711239
0.729499
0.747746
0.765966
0.784147
0.802278
0.82035
0.838354
0.856287
0.874145
0.891929
0.909643
0.927296
0.944902
0.962479
0.980051
0.99765
1.01531
1.03309
1.05102
1.06918
1.08763
1.10645
1.12572
1.14553
1.16599
1.1872
1.20927
1.23232
1.25648
1.28187
1.30862
1.33687
1.36676
1.39841
1.43197
1.46757
1.50535
1.54545
1.588
1.63315
1.68103
1.73177
1.78551
1.8424
1.90256
1.96614
2.03327
2.10409
2.1787
2.25725
2.33985
2.42542
2.51425
2.60618
2.70083
2.79765
2.89585
2.99434
3.09175
3.18632
3.27592
3.35807
3.42995
3.48858
3.53086
3.55392
3.55528
3.53333
3.48771
3.41975
3.33169
3.22556
3.11012
2.99225
2.87119
2.74777
2.62408
2.50211
2.38347
2.26932
2.16045
2.05734
1.96019
1.86905
1.78381
1.70425
1.63009
1.56103
1.49672
1.43683
1.38102
1.32896
1.28034
1.23488
1.19231
1.15237
1.11485
1.07954
1.04625
1.01482
0.985097
0.956934
0.930211
0.904815
0.880643
0.857601
0.835603
0.814572
0.794432
0.775116
0.756558
0.738692
0.721454
0.704773
0.688563
0.67266
0.657066
0.641634
0.626176
0.610875
0.596607
0.0106046
0.0186724
0.025072
0.0310322
0.0369099
0.0428324
0.0488069
0.0550083
0.0615639
0.0685545
0.076033
0.0840285
0.0925544
0.101614
0.111195
0.121282
0.131858
0.14291
0.154428
0.166406
0.178842
0.191734
0.205084
0.218893
0.23316
0.247877
0.263026
0.278581
0.294515
0.3108
0.327419
0.34439
0.36172
0.379413
0.397465
0.415873
0.434631
0.453734
0.473174
0.492943
0.513035
0.53344
0.554149
0.575153
0.596439
0.617998
0.639818
0.661885
0.684187
0.70671
0.72944
0.752361
0.775457
0.798714
0.822113
0.845638
0.869273
0.892998
0.916798
0.940654
0.964549
0.988466
1.01239
1.0363
1.0602
1.08405
1.10786
1.13162
1.15532
1.17896
1.20254
1.22607
1.24956
1.27303
1.2965
1.32
1.34357
1.36726
1.39111
1.4152
1.43959
1.46436
1.48961
1.51543
1.54193
1.56922
1.59743
1.62667
1.6571
1.68884
1.72203
1.75684
1.7934
1.83186
1.87238
1.91511
1.96021
2.00783
2.05812
2.11125
2.16738
2.22668
2.28931
2.35547
2.42532
2.49907
2.57691
2.65903
2.7456
2.8367
2.9319
3.03155
3.13567
3.24412
3.35653
3.47228
3.59044
3.70964
3.82805
3.94332
4.05254
4.15224
4.2385
4.30709
4.35373
4.3745
4.3664
4.32784
4.25835
4.15765
4.03241
3.89173
3.74178
3.58549
3.42609
3.26673
3.11006
2.95811
2.81234
2.67371
2.54276
2.41973
2.30459
2.19715
2.0971
2.00404
1.91754
1.83714
1.76237
1.69279
1.62796
1.56748
1.51096
1.45807
1.40848
1.3619
1.31807
1.27675
1.23772
1.20081
1.16582
1.13261
1.10102
1.07094
1.04225
1.01484
0.988615
0.963486
0.939369
0.916189
0.89387
0.872341
0.85153
0.831358
0.811697
0.792549
0.773866
0.75567
0.738392
0.723493
0.0149878
0.0270132
0.0361909
0.0443902
0.0520376
0.0593852
0.0667355
0.0743017
0.0822312
0.0906228
0.099538
0.109012
0.119064
0.129699
0.140912
0.152697
0.165043
0.17794
0.191381
0.205361
0.219873
0.234915
0.250483
0.266571
0.283174
0.300281
0.317882
0.33596
0.354505
0.373506
0.392961
0.41287
0.433235
0.454053
0.475323
0.497039
0.519198
0.541793
0.564819
0.588268
0.612132
0.636404
0.661075
0.686134
0.711571
0.737374
0.763533
0.790033
0.816862
0.844005
0.871447
0.899172
0.927164
0.955406
0.983879
1.01257
1.04145
1.0705
1.09972
1.12907
1.15853
1.18809
1.21773
1.24742
1.27715
1.3069
1.33665
1.3664
1.39612
1.4258
1.45544
1.48503
1.51458
1.54408
1.57354
1.60299
1.63243
1.6619
1.69143
1.72107
1.75086
1.78087
1.81116
1.8418
1.87289
1.90451
1.93677
1.96978
2.00365
2.0385
2.07445
2.11165
2.15022
2.19031
2.23205
2.27559
2.32108
2.36867
2.41852
2.47078
2.52564
2.58326
2.64385
2.70761
2.77476
2.84556
2.92024
2.9991
3.08242
3.1701
3.26251
3.36
3.4628
3.57105
3.68469
3.80345
3.92675
4.0536
4.18249
4.31133
4.43731
4.55686
4.66559
4.75837
4.82959
4.87362
4.88544
4.86108
4.79745
4.69767
4.57025
4.42211
4.25904
4.08588
3.90728
3.72742
3.54972
3.37679
3.21052
3.05218
2.90249
2.76178
2.63009
2.50722
2.39282
2.28645
2.1876
2.09574
2.01033
1.93086
1.85682
1.78774
1.7232
1.66277
1.60611
1.55288
1.50276
1.4555
1.41085
1.36858
1.32851
1.29044
1.25422
1.2197
1.18676
1.15527
1.12513
1.09623
1.0685
1.04183
1.01616
0.991408
0.96751
0.944399
0.922001
0.900298
0.879361
0.859346
0.840754
0.824889
0.0196723
0.035755
0.0476159
0.0575641
0.0665324
0.0750932
0.0835991
0.0922852
0.101315
0.1108
0.120815
0.131407
0.142604
0.154422
0.166865
0.179935
0.19363
0.207947
0.222882
0.238432
0.254592
0.271358
0.288725
0.306689
0.325242
0.344379
0.364091
0.38437
0.405212
0.42661
0.448564
0.471071
0.494131
0.517742
0.541901
0.566604
0.591847
0.617626
0.643934
0.670765
0.698113
0.725968
0.754322
0.783167
0.81249
0.842282
0.872531
0.903222
0.934344
0.965881
0.997818
1.03014
1.06283
1.09586
1.12923
1.1629
1.19687
1.2311
1.26559
1.3003
1.33521
1.3703
1.40554
1.44092
1.4764
1.51197
1.5476
1.58326
1.61893
1.65459
1.69023
1.72581
1.76133
1.79677
1.83212
1.86737
1.90252
1.93757
1.97253
2.00741
2.04224
2.07702
2.11181
2.14664
2.18156
2.21663
2.25191
2.28748
2.32341
2.35979
2.39671
2.43428
2.47259
2.51177
2.55192
2.59318
2.63567
2.67953
2.72491
2.77196
2.82086
2.87181
2.92501
2.9807
3.03913
3.10061
3.16543
3.23394
3.30651
3.38327
3.46474
3.55138
3.64363
3.7419
3.84648
3.95753
4.07496
4.19838
4.32698
4.45941
4.59355
4.72635
4.85362
4.96986
5.06838
5.14167
5.182
5.18213
5.13934
5.058
4.94375
4.80238
4.63994
4.46252
4.27599
4.08561
3.89568
3.70957
3.52972
3.3578
3.19484
3.04135
2.89748
2.7631
2.63787
2.52134
2.41299
2.31225
2.21854
2.13129
2.04997
1.97406
1.90308
1.8366
1.77422
1.71557
1.66032
1.60818
1.55889
1.5122
1.46789
1.42578
1.38568
1.34745
1.31094
1.27602
1.24257
1.2105
1.17971
1.1501
1.12161
1.09415
1.06767
1.04211
1.01744
0.993645
0.970859
0.949297
0.92941
0.912193
0.0241229
0.0440099
0.057934
0.0693298
0.0795444
0.0892266
0.0987636
0.108414
0.118358
0.128725
0.139604
0.151057
0.163125
0.175836
0.189208
0.203253
0.217978
0.233389
0.249486
0.26627
0.28374
0.301893
0.320727
0.340238
0.360421
0.381272
0.402787
0.424963
0.447795
0.471283
0.495423
0.520217
0.545661
0.571755
0.598496
0.625881
0.653908
0.682572
0.711868
0.74179
0.772331
0.803485
0.835243
0.867595
0.900533
0.934045
0.968119
1.00274
1.0379
1.07358
1.10977
1.14645
1.1836
1.2212
1.25924
1.29769
1.33653
1.37575
1.41531
1.45519
1.49537
1.53581
1.5765
1.6174
1.65848
1.69972
1.74107
1.78251
1.824
1.86551
1.90701
1.94846
1.98982
2.03106
2.07215
2.11305
2.15375
2.1942
2.23438
2.27428
2.31387
2.35314
2.39209
2.43071
2.469
2.50698
2.54466
2.58207
2.61924
2.6562
2.69302
2.72973
2.7664
2.80311
2.83993
2.87695
2.91427
2.95201
2.99029
3.02926
3.06909
3.10997
3.15212
3.19581
3.24131
3.28898
3.33916
3.39225
3.44868
3.50878
3.57304
3.64198
3.71619
3.79628
3.88285
3.97648
4.07766
4.18674
4.3039
4.42898
4.56125
4.69897
4.83909
4.97662
5.10436
5.21289
5.29131
5.32983
5.32501
5.27781
5.1911
5.06974
4.92007
4.74915
4.56407
4.37124
4.17606
3.98279
3.79459
3.61366
3.44142
3.27868
3.12576
2.98263
2.84905
2.72459
2.60873
2.50089
2.40049
2.30692
2.21963
2.13807
2.06175
1.9902
1.923
1.85977
1.80015
1.74384
1.69056
1.64005
1.59208
1.54645
1.50298
1.4615
1.42186
1.38393
1.34759
1.31273
1.27924
1.24705
1.21608
1.18625
1.15751
1.12982
1.10318
1.07756
1.05315
1.03016
1.00895
0.990254
0.0279318
0.0509141
0.0665537
0.0792733
0.090623
0.101312
0.111758
0.12224
0.132953
0.144041
0.155608
0.167731
0.180465
0.193852
0.207923
0.222702
0.238206
0.254447
0.271434
0.289173
0.307667
0.326915
0.346919
0.367677
0.389188
0.41145
0.434462
0.458223
0.482732
0.507988
0.533992
0.560744
0.588243
0.616489
0.64548
0.675215
0.705691
0.736906
0.768855
0.801533
0.834935
0.869054
0.903883
0.939413
0.975635
1.01254
1.05011
1.08834
1.12722
1.16673
1.20685
1.24758
1.28888
1.33075
1.37316
1.4161
1.45953
1.50345
1.54781
1.5926
1.63778
1.68333
1.72922
1.77541
1.82186
1.86855
1.91542
1.96244
2.00956
2.05674
2.10393
2.15107
2.19813
2.24503
2.29174
2.33818
2.38431
2.43006
2.47538
2.5202
2.56448
2.60815
2.65117
2.69348
2.73505
2.77582
2.81576
2.85484
2.89303
2.93032
2.9667
3.00217
3.03672
3.07039
3.1032
3.13518
3.16641
3.19693
3.22686
3.25631
3.28541
3.31435
3.34335
3.37266
3.40259
3.4335
3.46579
3.49989
3.53627
3.57533
3.61742
3.66304
3.71279
3.76738
3.82763
3.89445
3.96888
4.05207
4.14535
4.25019
4.36787
4.499
4.64293
4.79645
4.95285
5.10144
5.22816
5.31945
5.36833
5.37083
5.32664
5.23916
5.11458
4.9608
4.78614
4.5984
4.40428
4.20914
4.01705
3.83092
3.65269
3.48354
3.32405
3.17438
3.03439
2.90372
2.78188
2.66832
2.56246
2.46369
2.37143
2.28515
2.20431
2.12845
2.05713
1.98994
1.92654
1.8666
1.80983
1.75596
1.70476
1.65602
1.60955
1.56517
1.52275
1.48213
1.44319
1.40583
1.36993
1.33543
1.30223
1.27028
1.23953
1.20995
1.18154
1.15431
1.12842
1.10406
1.08152
1.06133
0.0307987
0.056472
0.073465
0.087245
0.0995286
0.111061
0.122273
0.133452
0.144802
0.156478
0.168593
0.181238
0.194481
0.208376
0.222966
0.238286
0.254361
0.271212
0.288855
0.307301
0.326557
0.346629
0.36752
0.389234
0.411771
0.435134
0.459324
0.484343
0.510193
0.536875
0.564392
0.592745
0.621934
0.651963
0.682829
0.714534
0.747077
0.780455
0.814665
0.849706
0.885571
0.922255
0.959754
0.998058
1.03716
1.07705
1.11772
1.15916
1.20135
1.24428
1.28794
1.33232
1.37738
1.42313
1.46953
1.51657
1.56422
1.61246
1.66126
1.7106
1.76045
1.81077
1.86153
1.91269
1.96421
2.01605
2.06817
2.1205
2.17301
2.22563
2.27831
2.33097
2.38355
2.43598
2.48818
2.54007
2.59157
2.64259
2.69304
2.74283
2.79185
2.84003
2.88725
2.93342
2.97844
3.02223
3.06469
3.10572
3.14524
3.18318
3.21946
3.25402
3.2868
3.31776
3.34685
3.37408
3.39942
3.4229
3.44455
3.46444
3.48266
3.49935
3.51469
3.52891
3.54229
3.55518
3.56799
3.58114
3.59514
3.6103
3.62675
3.6448
3.66495
3.68785
3.71437
3.74565
3.78309
3.82857
3.88461
3.95453
4.0422
4.15159
4.28596
4.44546
4.62585
4.81645
4.99724
5.15285
5.26976
5.33797
5.3526
5.31431
5.22843
5.1033
4.94857
4.77367
4.58688
4.395
4.20324
4.01542
3.83414
3.66109
3.4972
3.34286
3.1981
3.06267
2.93615
2.81804
2.70775
2.6047
2.50833
2.41808
2.33342
2.25388
2.17901
2.10841
2.04171
1.97859
1.91874
1.8619
1.80783
1.75632
1.70716
1.6602
1.61526
1.57222
1.53095
1.49133
1.45326
1.41667
1.38147
1.34761
1.31504
1.28375
1.25375
1.22504
1.19777
1.1721
1.14823
1.12657
0.0329942
0.0607282
0.078671
0.093205
0.106181
0.118359
0.130171
0.141902
0.153758
0.165896
0.178437
0.19148
0.205101
0.219364
0.234322
0.250017
0.266483
0.283748
0.301833
0.320755
0.340527
0.36116
0.382661
0.405038
0.428296
0.452441
0.477478
0.503411
0.530245
0.557986
0.586636
0.616201
0.646682
0.678085
0.71041
0.74366
0.777835
0.812936
0.848962
0.885911
0.923781
0.962568
1.00227
1.04287
1.08438
1.12678
1.17007
1.21423
1.25925
1.30513
1.35185
1.39939
1.44774
1.49689
1.54681
1.59748
1.64889
1.701
1.7538
1.80726
1.86134
1.91601
1.97124
2.02698
2.08319
2.13983
2.19685
2.25418
2.31177
2.36956
2.42746
2.48542
2.54333
2.60113
2.6587
2.71595
2.77277
2.82906
2.88468
2.93951
2.99343
3.0463
3.09798
3.14833
3.1972
3.24445
3.28994
3.3335
3.37501
3.41432
3.45129
3.4858
3.51773
3.54697
3.57342
3.597
3.61763
3.63527
3.64988
3.66146
3.67005
3.6757
3.67852
3.67869
3.67641
3.67199
3.66575
3.6581
3.64949
3.64004
3.62953
3.61799
3.60562
3.59284
3.58036
3.5693
3.56126
3.55856
3.56468
3.58469
3.62536
3.69481
3.80153
3.95122
4.14495
4.36761
4.60164
4.82724
5.02383
5.17349
5.2644
5.2924
5.26058
5.17714
5.05296
4.89934
4.7266
4.54329
4.35613
4.17007
3.9886
3.81403
3.64774
3.49047
3.34245
3.20358
3.07355
2.95191
2.83813
2.73165
2.63191
2.53837
2.45051
2.36785
2.28995
2.21641
2.14685
2.08095
2.01841
1.95895
1.90234
1.84836
1.79681
1.74752
1.70034
1.65512
1.61173
1.57007
1.53005
1.49156
1.45455
1.41896
1.38475
1.35191
1.32045
1.29039
1.26182
1.23489
1.20973
1.18664
0.0345503
0.0637391
0.0822549
0.0972349
0.110645
0.123253
0.135481
0.147605
0.159827
0.172299
0.185146
0.198467
0.212345
0.226848
0.242035
0.257952
0.274641
0.292134
0.310458
0.329635
0.349684
0.37062
0.392457
0.415206
0.438876
0.463478
0.489021
0.515512
0.54296
0.571372
0.600757
0.63112
0.662467
0.694805
0.728139
0.762472
0.797809
0.834151
0.871501
0.90986
0.949227
0.989601
1.03098
1.07336
1.11674
1.16112
1.20648
1.25282
1.30013
1.34841
1.39763
1.4478
1.49889
1.5509
1.6038
1.65758
1.71221
1.76768
1.82396
1.88103
1.93885
1.99739
2.05661
2.11648
2.17694
2.23796
2.29947
2.36142
2.42374
2.48636
2.5492
2.61217
2.67518
2.73813
2.80092
2.86341
2.92548
2.987
3.04783
3.10781
3.16677
3.22455
3.28098
3.33586
3.38902
3.44025
3.48937
3.53617
3.58045
3.62203
3.6607
3.69628
3.7286
3.75747
3.78274
3.80428
3.82193
3.8356
3.84518
3.8506
3.85181
3.84881
3.84162
3.83032
3.81504
3.79595
3.77331
3.74744
3.71864
3.68667
3.65094
3.61113
3.56702
3.51863
3.46624
3.41071
3.35354
3.29708
3.24514
3.20376
3.18203
3.19258
3.24973
3.36668
3.54546
3.77882
4.05221
4.34356
4.62527
4.86946
5.05404
5.16685
5.20636
5.17944
5.09788
4.9751
4.8238
4.65484
4.47678
4.29607
4.1173
3.94358
3.7769
3.61839
3.46856
3.32752
3.19509
3.07091
2.95451
2.84539
2.74299
2.64681
2.55634
2.4711
2.39067
2.31463
2.24263
2.17433
2.10945
2.0477
1.98886
1.9327
1.87903
1.82768
1.77849
1.73131
1.68604
1.64255
1.60076
1.56057
1.52192
1.48477
1.44907
1.41482
1.38202
1.35071
1.32092
1.29277
1.26637
1.24193
0.0355043
0.0656013
0.0843544
0.0994934
0.113087
0.125905
0.138358
0.150708
0.163147
0.17582
0.188847
0.202325
0.216337
0.230951
0.246227
0.262217
0.278963
0.296504
0.314869
0.334086
0.354179
0.375167
0.397069
0.419901
0.443677
0.468411
0.494116
0.520805
0.548489
0.57718
0.606889
0.637624
0.669397
0.702216
0.73609
0.771025
0.807028
0.844105
0.882262
0.921502
0.961829
1.00324
1.04575
1.08935
1.13403
1.17981
1.22666
1.2746
1.32362
1.37371
1.42486
1.47706
1.53031
1.58459
1.63989
1.6962
1.75349
1.81174
1.87095
1.93107
1.99209
2.05397
2.11667
2.18016
2.24439
2.30932
2.37488
2.44101
2.50765
2.57472
2.64214
2.70981
2.77763
2.84549
2.91326
2.98082
3.04802
3.11471
3.18071
3.24586
3.30997
3.37282
3.43422
3.49395
3.55178
3.60747
3.66079
3.71149
3.75932
3.80404
3.8454
3.88316
3.9171
3.94699
3.97262
3.9938
4.01034
4.02208
4.02887
4.03056
4.02706
4.01828
4.0042
3.9848
3.96013
3.93027
3.89538
3.85572
3.81129
3.76127
3.7049
3.64154
3.57062
3.49172
3.40455
3.30937
3.20761
3.10127
2.99362
2.89029
2.80021
2.73983
2.72516
2.77352
2.89717
3.10155
3.38136
3.71728
4.0769
4.42112
4.71372
4.92977
5.05926
5.10544
5.08017
4.99897
4.87741
4.72913
4.56508
4.39354
4.22051
4.05012
3.88507
3.72703
3.57685
3.43491
3.30119
3.17545
3.05731
2.94632
2.84197
2.74378
2.65127
2.56399
2.48149
2.40341
2.32937
2.25906
2.19218
2.12848
2.06771
2.00965
1.95413
1.90096
1.85
1.8011
1.75415
1.70903
1.66566
1.62395
1.58383
1.54527
1.50822
1.47269
1.43866
1.40618
1.37525
1.34596
1.31837
1.29267
0.0359022
0.0664294
0.0851353
0.100183
0.113732
0.126554
0.139046
0.151456
0.163962
0.176698
0.189773
0.20328
0.217295
0.231885
0.24711
0.26302
0.279661
0.29707
0.315284
0.334332
0.354242
0.375039
0.396744
0.419378
0.442961
0.46751
0.493042
0.519575
0.547124
0.575704
0.605329
0.636015
0.667774
0.700619
0.734562
0.769616
0.805789
0.843092
0.881534
0.921123
0.961867
1.00377
1.04684
1.09108
1.1365
1.18309
1.23086
1.27981
1.32993
1.38123
1.43371
1.48735
1.54216
1.59812
1.65523
1.71347
1.77283
1.83329
1.89485
1.95746
2.02112
2.08579
2.15144
2.21803
2.28551
2.35385
2.42298
2.49284
2.56336
2.63446
2.70606
2.77806
2.85035
2.92281
2.99531
3.06771
3.13984
3.21155
3.28263
3.35291
3.42216
3.49016
3.55666
3.62144
3.68421
3.74471
3.80265
3.85777
3.90976
3.95833
4.00319
4.04406
4.08067
4.11275
4.14006
4.16235
4.17941
4.19103
4.197
4.19716
4.19134
4.17943
4.16134
4.13701
4.1064
4.06952
4.02656
3.97772
3.92232
3.85911
3.78737
3.70629
3.61513
3.51323
3.39985
3.27413
3.13839
2.99439
2.84463
2.6938
2.54919
2.42248
2.32771
2.28316
2.31046
2.43173
2.66113
2.99403
3.40144
3.83511
4.24111
4.57535
4.81317
4.95007
4.99605
4.96833
4.88565
4.765
4.62024
4.46198
4.29791
4.13343
3.97215
3.81635
3.66734
3.52579
3.39191
3.26561
3.14661
3.03454
2.92895
2.8294
2.73544
2.64663
2.56256
2.48287
2.40721
2.33527
2.26675
2.20142
2.13902
2.07936
2.02226
1.96753
1.91503
1.86463
1.81621
1.76966
1.72489
1.68183
1.64041
1.60059
1.56233
1.52563
1.49049
1.45693
1.42493
1.39457
1.36587
1.33899
0.0357857
0.0663356
0.0847681
0.0995239
0.112837
0.125483
0.137846
0.15016
0.162585
0.175243
0.188232
0.201634
0.215519
0.22995
0.24498
0.26066
0.277034
0.294141
0.312017
0.330697
0.350209
0.370582
0.391843
0.414014
0.43712
0.461184
0.486225
0.512265
0.539324
0.567421
0.596576
0.626807
0.658132
0.690568
0.724132
0.758839
0.794706
0.831746
0.869973
0.9094
0.950038
0.991899
1.03499
1.07933
1.12492
1.17178
1.21989
1.26928
1.31995
1.37189
1.42512
1.47963
1.53542
1.59249
1.65083
1.71044
1.77131
1.83342
1.89677
1.96133
2.02709
2.09401
2.16208
2.23125
2.30149
2.37274
2.44496
2.51808
2.59203
2.66674
2.74211
2.81805
2.89444
2.97116
3.04806
3.12501
3.20183
3.27833
3.35432
3.42958
3.50388
3.57697
3.64859
3.71847
3.7863
3.85179
3.91462
3.97447
4.03103
4.08394
4.13286
4.17749
4.21752
4.25266
4.28262
4.30713
4.32593
4.33878
4.34543
4.34568
4.33933
4.32623
4.30624
4.27925
4.24515
4.20395
4.15585
4.1008
4.0373
3.96404
3.88041
3.78561
3.67886
3.55955
3.42719
3.28163
3.1242
2.95634
2.78038
2.60003
2.42051
2.2489
2.09434
1.96976
1.89444
1.89684
2.01196
2.26683
2.65807
3.14183
3.64762
4.10504
4.46561
4.71002
4.84257
4.88087
4.8468
4.76118
4.64134
4.50066
4.34894
4.19309
4.03778
3.88606
3.73978
3.59998
3.4671
3.34127
3.22232
3.10998
3.00388
2.90363
2.8088
2.71902
2.63388
2.55304
2.47618
2.40299
2.3332
2.26656
2.20286
2.14189
2.08346
2.02743
1.97364
1.92196
1.87228
1.8245
1.77853
1.73429
1.69172
1.65079
1.61146
1.57371
1.53756
1.503
1.47003
1.43868
1.40895
1.38098
0.0351862
0.0654096
0.0834054
0.097729
0.110662
0.12299
0.135082
0.147159
0.159367
0.171813
0.184584
0.197749
0.211372
0.225508
0.240206
0.255512
0.271467
0.28811
0.305477
0.323603
0.34252
0.362259
0.382848
0.404315
0.426687
0.449991
0.474252
0.499494
0.525742
0.55302
0.581352
0.610761
0.641269
0.6729
0.705675
0.739615
0.774742
0.811077
0.848639
0.887446
0.92751
0.968851
1.01149
1.05543
1.1007
1.14731
1.19527
1.2446
1.2953
1.34738
1.40084
1.45571
1.51197
1.56964
1.62871
1.68919
1.75106
1.81432
1.87897
1.94499
2.01236
2.08106
2.15107
2.22235
2.29488
2.36859
2.44345
2.51939
2.59634
2.67423
2.75297
2.83245
2.91256
2.99317
3.07414
3.15531
3.2365
3.31752
3.39815
3.47817
3.55733
3.63535
3.71196
3.78686
3.85971
3.93019
3.99796
4.06265
4.12391
4.18136
4.23465
4.28341
4.32732
4.36605
4.39927
4.4267
4.44801
4.46295
4.47122
4.47259
4.46683
4.45375
4.43316
4.40488
4.36877
4.32488
4.27338
4.21353
4.14323
4.06184
3.96874
3.86318
3.74448
3.61212
3.46583
3.3058
3.13297
2.94869
2.75526
2.55605
2.35541
2.15857
1.97164
1.80221
1.66117
1.56699
1.55244
1.66651
1.95331
2.40989
2.9697
3.53502
4.02241
4.38666
4.61952
4.73589
4.76009
4.71693
4.62769
4.50898
4.37305
4.22859
4.08153
3.93579
3.79384
3.65715
3.5265
3.40218
3.28423
3.17246
3.06661
2.96633
2.87126
2.78106
2.69536
2.61385
2.53621
2.46218
2.39148
2.32389
2.2592
2.19721
2.13776
2.08068
2.02584
1.97311
1.92239
1.87357
1.82658
1.78134
1.73779
1.69589
1.65562
1.61695
1.57989
1.54443
1.51058
1.47831
1.44764
1.41868
0.0341277
0.0637139
0.0811689
0.0949842
0.107451
0.119358
0.13107
0.142794
0.154665
0.166778
0.179207
0.192013
0.20525
0.218966
0.233208
0.248016
0.263418
0.279453
0.296158
0.313569
0.331719
0.350639
0.370362
0.390918
0.412337
0.434649
0.457884
0.482069
0.507235
0.533409
0.560621
0.588899
0.618271
0.648765
0.680409
0.713229
0.747253
0.782506
0.819015
0.856803
0.895894
0.936314
0.978084
1.02123
1.06576
1.11172
1.1591
1.20794
1.25825
1.31004
1.36332
1.41812
1.47443
1.53227
1.59165
1.65256
1.71501
1.779
1.84452
1.91157
1.98013
2.05018
2.1217
2.19467
2.26905
2.3448
2.42187
2.5002
2.57973
2.66037
2.74205
2.82465
2.90806
2.99215
3.07678
3.16178
3.24696
3.33213
3.41706
3.50151
3.58522
3.6679
3.74925
3.82894
3.90663
3.98197
4.05457
4.12406
4.19003
4.2521
4.30986
4.36294
4.41099
4.45363
4.49051
4.5213
4.54566
4.56327
4.57382
4.57704
4.57265
4.56041
4.54008
4.51142
4.4743
4.42878
4.37461
4.31022
4.23407
4.14571
4.04454
3.92989
3.80111
3.65769
3.4994
3.32651
3.13987
2.94106
2.73262
2.51818
2.30225
2.08992
1.8865
1.69743
1.5286
1.38839
1.29318
1.27886
1.40936
1.74617
2.27777
2.90449
3.50346
3.98979
4.33173
4.53582
4.62667
4.63271
4.57936
4.48679
4.36997
4.2396
4.10302
3.96515
3.82916
3.697
3.56979
3.44808
3.33209
3.22176
3.11692
3.01731
2.92264
2.8326
2.74687
2.66517
2.58722
2.51275
2.44153
2.37335
2.308
2.2453
2.1851
2.12725
2.07161
2.01807
1.96652
1.91687
1.86905
1.82298
1.77861
1.7359
1.69482
1.65535
1.61748
1.58123
1.54658
1.51349
1.48196
1.45212
0.0327037
0.061306
0.0781592
0.0914455
0.103411
0.11484
0.126098
0.137383
0.148823
0.160504
0.172488
0.184828
0.197568
0.210746
0.224401
0.238567
0.253276
0.268562
0.28446
0.301003
0.318226
0.336162
0.354845
0.374307
0.394581
0.415702
0.437701
0.460612
0.484469
0.509306
0.535155
0.562052
0.590029
0.619121
0.649362
0.680785
0.713424
0.747311
0.782479
0.818961
0.856786
0.895988
0.936595
0.978636
1.02214
1.06714
1.11365
1.1617
1.21132
1.26252
1.31533
1.36976
1.42582
1.48354
1.54292
1.60398
1.66671
1.73112
1.79722
1.86498
1.93441
2.0055
2.07821
2.15254
2.22844
2.30587
2.3848
2.46516
2.54689
2.62991
2.71413
2.79946
2.88577
2.97293
3.0608
3.14921
3.23796
3.32686
3.41567
3.50414
3.592
3.67895
3.76467
3.84882
3.93104
4.01094
4.08813
4.1622
4.23272
4.29928
4.36147
4.41888
4.47112
4.51779
4.55852
4.59293
4.62064
4.6413
4.65456
4.66012
4.65765
4.64683
4.62736
4.59895
4.56149
4.51483
4.4579
4.38881
4.30704
4.21201
4.10309
3.97954
3.84066
3.6859
3.51502
3.32835
3.12695
2.91287
2.68928
2.46048
2.23161
2.00819
1.79564
1.59878
1.42171
1.26832
1.14455
1.06569
1.07365
1.25057
1.66602
2.27781
2.94694
3.54105
3.9915
4.28776
4.45067
4.51089
4.49764
4.4347
4.33992
4.22609
4.10209
3.97391
3.84546
3.71922
3.59669
3.47869
3.36563
3.25762
3.15459
3.05638
2.96276
2.87347
2.78827
2.70688
2.62907
2.55459
2.48325
2.41483
2.34917
2.28608
2.22543
2.16708
2.1109
2.05679
2.00464
1.95438
1.90592
1.8592
1.81417
1.7708
1.72905
1.6889
1.65035
1.6134
1.57804
1.54422
1.51194
1.4813
0.031024
0.0583271
0.0745021
0.0872377
0.0986807
0.109597
0.120347
0.131128
0.14206
0.153221
0.164666
0.176437
0.188571
0.201099
0.214052
0.22746
0.241354
0.255765
0.270727
0.286272
0.302436
0.319252
0.336757
0.354985
0.373973
0.393757
0.414374
0.435861
0.458257
0.4816
0.505931
0.531288
0.557712
0.585243
0.613922
0.64379
0.674887
0.707253
0.740929
0.775954
0.812367
0.850207
0.889511
0.930316
0.972658
1.01657
1.06209
1.10924
1.15805
1.20856
1.26078
1.31474
1.37046
1.42795
1.48724
1.54833
1.61124
1.67596
1.7425
1.81086
1.88103
1.95299
2.02673
2.10223
2.17944
2.25834
2.33888
2.421
2.50464
2.58972