/*--------------------------------*- C++ -*----------------------------------*\
| =========                 |                                                 |
| \\      /  F ield         | OpenFOAM: The Open Source CFD Toolbox           |
|  \\    /   O peration     | Version:  1.4.2                                 |
|   \\  /    A nd           | Web:      http://www.openfoam.org               |
|    \\/     M anipulation  |                                                 |
\*---------------------------------------------------------------------------*/
FoamFile
{
    version     2.0;
    format      ascii;
    class       volScalarField;
    object      p;
    location    "500";
}
// * * * * * * * * * * * * * * * * * * * * * * * * * * * * * * * * * * * * * //

dimensions      [0 2 -2 0 0 0 0];

internalField   nonuniform List<scalar> 
12225
(
-3.52688
-4.36437
-4.61339
-4.71047
-4.81548
-4.91826
-5.00877
-5.0907
-5.168
-5.24239
-5.3149
-5.38662
-5.45883
-5.5332
-5.61213
-5.69965
-5.80256
-5.94726
-3.69321
-4.37153
-4.61137
-4.71205
-4.81609
-4.91717
-5.0065
-5.0875
-5.16392
-5.23745
-5.30912
-5.38001
-5.45139
-5.52484
-5.60265
-5.68844
-5.78838
-5.91839
-3.87226
-4.36748
-4.60059
-4.70973
-4.81392
-4.91359
-5.00223
-5.08291
-5.159
-5.23214
-5.30335
-5.37366
-5.44425
-5.51652
-5.59226
-5.67389
-5.76362
-5.86312
-4.02943
-4.38506
-4.60348
-4.71698
-4.81962
-4.9168
-5.00411
-5.08405
-5.15953
-5.23206
-5.30264
-5.37219
-5.44171
-5.51231
-5.58518
-5.66145
-5.74078
-5.8202
-4.15929
-4.41647
-4.6141
-4.72815
-4.8284
-4.92272
-5.00824
-5.08698
-5.16143
-5.23295
-5.30247
-5.37078
-5.4387
-5.50698
-5.57621
-5.6465
-5.71618
-5.781
-4.27239
-4.45624
-4.62969
-4.74121
-4.83833
-4.92958
-5.01313
-5.09054
-5.16382
-5.23419
-5.30245
-5.36927
-5.43525
-5.50081
-5.56606
-5.63043
-5.69184
-5.74631
-4.37269
-4.50185
-4.65003
-4.75619
-4.84925
-4.93691
-5.01806
-5.09379
-5.16567
-5.23468
-5.30147
-5.36656
-5.43033
-5.49291
-5.55407
-5.61292
-5.66745
-5.71455
-4.44889
-4.54373
-4.67108
-4.77069
-4.85954
-4.94369
-5.02235
-5.09627
-5.16661
-5.23416
-5.29943
-5.3628
-5.42447
-5.48439
-5.54218
-5.59687
-5.64673
-5.68933
-4.50996
-4.58185
-4.69176
-4.78498
-4.86966
-4.95039
-5.02658
-5.09861
-5.16733
-5.23335
-5.29706
-5.3587
-5.41836
-5.47587
-5.53077
-5.58214
-5.62857
-5.6681
-4.57011
-4.6235
-4.71606
-4.80184
-4.88159
-4.95835
-5.03159
-5.10132
-5.16807
-5.23222
-5.29403
-5.35363
-5.41098
-5.46587
-5.51778
-5.56594
-5.60926
-5.64622
-4.62853
-4.66769
-4.74389
-4.82125
-4.89537
-4.96761
-5.03739
-5.10438
-5.16874
-5.23067
-5.29026
-5.34753
-5.40235
-5.45446
-5.5034
-5.54852
-5.58907
-5.62394
-4.68438
-4.71309
-4.77468
-4.84302
-4.91094
-4.97817
-5.04399
-5.10777
-5.16934
-5.22867
-5.28572
-5.34039
-5.3925
-5.44177
-5.48781
-5.53015
-5.56828
-5.60145
-4.73685
-4.75816
-4.80738
-4.86664
-4.92798
-4.98986
-5.05129
-5.11142
-5.1698
-5.22619
-5.28041
-5.33227
-5.38155
-5.42799
-5.47129
-5.51111
-5.54716
-5.57894
-4.78495
-4.80114
-4.84041
-4.89111
-4.94583
-5.0022
-5.05897
-5.11512
-5.17
-5.22318
-5.27435
-5.32328
-5.3697
-5.4134
-5.45414
-5.49173
-5.52598
-5.55661
-4.8273
-4.83999
-4.87167
-4.91485
-4.96331
-5.01431
-5.0664
-5.11846
-5.16967
-5.2195
-5.26755
-5.31352
-5.35716
-5.39827
-5.43669
-5.47231
-5.50501
-5.53466
-4.8619
-4.87227
-4.89849
-4.93565
-4.97866
-5.02481
-5.07254
-5.12067
-5.16833
-5.21489
-5.2599
-5.30305
-5.3441
-5.38286
-5.41922
-5.45312
-5.48451
-5.51331
-4.88575
-4.89472
-4.91746
-4.95042
-4.98935
-5.03166
-5.0758
-5.12059
-5.16514
-5.2088
-5.25112
-5.29178
-5.33056
-5.36731
-5.40193
-5.4344
-5.46468
-5.49275
-4.89373
-4.90221
-4.92371
-4.95496
-4.99195
-5.03222
-5.07426
-5.11696
-5.15944
-5.20111
-5.24152
-5.28039
-5.31753
-5.3528
-5.38614
-5.41754
-5.44698
-5.47444
-4.88508
-4.89404
-4.91658
-4.94874
-4.98615
-5.02641
-5.06811
-5.11021
-5.15191
-5.19268
-5.23214
-5.27005
-5.30626
-5.34067
-5.37325
-5.404
-5.4329
-5.45995
-4.86371
-4.87413
-4.89987
-4.93515
-4.97484
-5.01662
-5.05928
-5.10189
-5.14375
-5.18442
-5.22363
-5.26119
-5.29699
-5.331
-5.36318
-5.39356
-5.42215
-5.44894
-4.83215
-4.8454
-4.87674
-4.9171
-4.96043
-5.00478
-5.04927
-5.09308
-5.13568
-5.17675
-5.21611
-5.25368
-5.2894
-5.32325
-5.35525
-5.38544
-5.41384
-5.44045
-4.79162
-4.80981
-4.84972
-4.89691
-4.94476
-4.99233
-5.03913
-5.08453
-5.12815
-5.16986
-5.20961
-5.24738
-5.28318
-5.31703
-5.34898
-5.37907
-5.40734
-5.4338
-4.74234
-4.76897
-4.82108
-4.8764
-4.92916
-4.98025
-5.02958
-5.07668
-5.12142
-5.16385
-5.20407
-5.24212
-5.27809
-5.31202
-5.34399
-5.37405
-5.40224
-5.42856
-4.68375
-4.72452
-4.79299
-4.85696
-4.91452
-4.96915
-5.021
-5.06973
-5.11553
-5.15868
-5.19936
-5.23772
-5.27388
-5.30793
-5.33997
-5.37003
-5.39817
-5.42432
-4.61459
-4.67833
-4.76739
-4.83956
-4.90137
-4.95937
-5.01354
-5.06371
-5.11042
-5.15417
-5.19525
-5.23388
-5.27023
-5.30443
-5.33657
-5.3667
-5.39484
-5.42085
-4.53308
-4.63273
-4.74577
-4.82453
-4.88975
-4.9508
-5.007
-5.05834
-5.10577
-5.15
-5.19141
-5.23027
-5.26681
-5.30117
-5.33349
-5.3638
-5.39206
-5.41802
-4.43572
-4.59134
-4.72929
-4.81176
-4.87956
-4.94338
-5.00134
-5.05366
-5.10171
-5.1464
-5.18816
-5.22731
-5.26411
-5.29874
-5.33137
-5.36204
-5.39069
-5.41698
-4.31087
-4.55996
-4.72052
-4.80209
-4.87143
-4.93775
-4.99722
-5.05032
-5.09888
-5.14394
-5.18599
-5.22536
-5.26235
-5.29719
-5.33009
-5.36118
-5.3904
-5.4175
-4.1499
-4.54917
-4.72763
-4.80314
-4.87209
-4.93981
-4.99996
-5.05324
-5.10186
-5.14698
-5.18905
-5.22843
-5.26544
-5.30035
-5.3334
-5.36487
-5.39492
-5.42399
-3.98699
-4.53262
-4.72762
-4.80044
-4.86997
-4.93905
-4.99997
-5.05363
-5.10255
-5.14793
-5.19026
-5.22989
-5.26714
-5.30231
-5.33567
-5.36759
-5.39856
-5.43259
-6.09028
-6.08981
-6.09021
-6.09145
-6.09321
-6.09527
-6.09745
-6.09977
-6.10226
-6.10493
-6.10781
-6.11096
-6.11472
-6.11927
-6.12457
-6.13068
-6.13768
-6.14564
-6.1546
-6.16458
-6.17559
-6.18763
-6.20069
-6.21477
-6.22982
-6.24583
-6.2628
-6.28082
-6.29991
-6.31994
-6.34073
-6.36224
-6.38447
-6.40741
-6.43103
-6.45532
-6.48023
-6.50576
-6.53188
-6.55855
-6.58576
-6.61348
-6.64169
-6.67035
-6.69945
-6.72896
-6.75887
-6.78916
-6.81981
-6.85081
-6.88214
-6.91379
-6.94574
-6.97799
-7.01053
-7.04337
-7.0765
-7.10993
-7.14366
-7.17771
-7.21208
-7.24678
-7.28185
-7.31732
-7.35322
-7.3896
-7.42652
-7.46403
-7.50221
-7.54112
-7.58084
-7.62146
-7.66306
-7.70575
-7.74965
-7.79488
-7.84155
-7.88979
-7.93972
-7.99146
-8.04514
-8.10086
-8.15872
-8.2188
-8.28114
-8.34575
-8.4126
-8.48157
-8.5525
-8.62511
-8.69902
-8.77369
-8.84842
-8.92231
-8.99422
-9.06274
-9.12612
-9.18223
-9.22852
-9.26203
-9.27926
-9.27609
-9.24757
-9.188
-9.09108
-8.95019
-8.75828
-8.50727
-8.1875
-7.78841
-7.30026
-6.71487
-6.02541
-5.22686
-4.31677
-3.29586
-2.16863
-0.943748
0.365755
1.74248
3.16512
4.60927
6.04888
7.45784
8.81173
10.0891
11.2722
12.3482
13.3101
14.1583
14.9025
15.5626
16.1394
16.623
17.0193
17.3388
17.5919
17.7883
17.9371
18.0463
18.1228
18.1728
18.2015
18.2132
18.2117
18.2
18.1807
18.1557
18.1268
18.0952
18.062
18.028
17.9937
17.9596
17.9262
17.8937
17.8621
17.8317
17.8025
17.7746
17.7478
17.7223
17.6979
17.6747
17.6526
17.6316
17.6117
17.593
17.5756
17.5597
17.5455
17.5337
17.5249
17.5201
17.5213
17.5314
17.556
17.604
17.7002
17.8652
-6.09041
-6.09015
-6.09051
-6.09156
-6.09285
-6.09413
-6.09539
-6.09666
-6.09802
-6.09953
-6.10126
-6.10331
-6.10581
-6.10896
-6.11285
-6.11759
-6.12325
-6.12988
-6.13754
-6.14625
-6.15603
-6.16689
-6.17882
-6.19181
-6.20585
-6.22092
-6.23696
-6.25393
-6.2717
-6.29026
-6.30969
-6.32997
-6.35105
-6.37287
-6.3954
-6.41859
-6.44244
-6.4669
-6.49195
-6.51756
-6.54371
-6.57038
-6.59753
-6.62514
-6.65318
-6.68165
-6.71052
-6.73976
-6.76936
-6.7993
-6.82956
-6.86013
-6.89099
-6.92215
-6.95359
-6.98531
-7.01731
-7.0496
-7.08217
-7.11504
-7.14822
-7.18172
-7.21556
-7.24978
-7.28442
-7.31952
-7.35513
-7.39133
-7.42817
-7.46572
-7.50405
-7.54326
-7.58345
-7.62471
-7.66718
-7.71096
-7.75619
-7.80299
-7.85149
-7.90182
-7.9541
-8.00846
-8.065
-8.1238
-8.18492
-8.2484
-8.31421
-8.38227
-8.45244
-8.5245
-8.59808
-8.67271
-8.74775
-8.82235
-8.89547
-8.9658
-9.03171
-9.09119
-9.14186
-9.1809
-9.20501
-9.21029
-9.19206
-9.1449
-9.0628
-8.93949
-8.76828
-8.54123
-8.24843
-7.87935
-7.42478
-6.87671
-6.22815
-5.47379
-4.61064
-3.63869
-2.56142
-1.38619
-0.124528
1.2079
2.59157
4.00398
5.42088
6.81775
8.17083
9.45794
10.6595
11.7608
12.7545
13.6431
14.4336
15.1291
15.7291
16.2364
16.6587
17.0054
17.286
17.5093
17.6838
17.8172
17.9163
17.9872
18.0348
18.0638
18.0779
18.0803
18.0734
18.0597
18.0407
18.0179
17.9925
17.9654
17.9373
17.9087
17.8801
17.8517
17.824
17.7969
17.7707
17.7453
17.7209
17.6975
17.675
17.6535
17.6329
17.6133
17.5946
17.5771
17.5607
17.5458
17.5327
17.5218
17.514
17.5103
17.5127
17.524
17.5497
17.5977
17.6893
17.8163
-6.08664
-6.08717
-6.08811
-6.0893
-6.09047
-6.09155
-6.09252
-6.09339
-6.09426
-6.0953
-6.09659
-6.09827
-6.10043
-6.1032
-6.10668
-6.11095
-6.11606
-6.12208
-6.12905
-6.13699
-6.14593
-6.15588
-6.16683
-6.1788
-6.19177
-6.20573
-6.22067
-6.23658
-6.25338
-6.27102
-6.28945
-6.30868
-6.32868
-6.34941
-6.37086
-6.39299
-6.41577
-6.43919
-6.46321
-6.48781
-6.51297
-6.53865
-6.56483
-6.59149
-6.61861
-6.64615
-6.67411
-6.70246
-6.73118
-6.76025
-6.78965
-6.81937
-6.84941
-6.87974
-6.91037
-6.94128
-6.97248
-7.00396
-7.03573
-7.0678
-7.10018
-7.13289
-7.16594
-7.19937
-7.23322
-7.26753
-7.30235
-7.33773
-7.37376
-7.41048
-7.448
-7.48639
-7.52576
-7.56622
-7.60787
-7.65084
-7.69526
-7.74126
-7.78898
-7.83856
-7.89012
-7.94379
-7.99968
-8.0579
-8.11851
-8.18156
-8.24706
-8.31493
-8.38508
-8.45728
-8.53124
-8.60651
-8.68249
-8.75841
-8.83329
-8.90588
-8.97467
-9.03775
-9.09286
-9.13731
-9.16794
-9.18104
-9.17215
-9.13607
-9.06707
-8.95922
-8.80621
-8.60019
-8.33098
-7.98838
-7.56366
-7.04875
-6.43658
-5.72163
-4.90054
-3.97268
-2.94075
-1.81114
-0.594239
0.695495
2.03985
3.41777
4.80658
6.18288
7.52296
8.80337
10.0034
11.1103
12.1229
13.046
13.8759
14.6087
15.2461
15.7912
16.2512
16.6347
16.9502
17.2064
17.4115
17.5729
17.6975
17.7914
17.8598
17.9074
17.9381
17.9552
17.9615
17.9594
17.9507
17.937
17.9197
17.8997
17.8778
17.8548
17.8311
17.8071
17.7832
17.7595
17.7363
17.7137
17.6916
17.6703
17.6498
17.6299
17.6109
17.5927
17.5753
17.559
17.5437
17.5298
17.5176
17.5076
17.5006
17.4978
17.5007
17.5122
17.5368
17.58
17.6577
17.7408
-6.07919
-6.08093
-6.083
-6.08474
-6.08616
-6.08731
-6.08825
-6.0891
-6.08998
-6.09103
-6.09236
-6.09408
-6.09629
-6.09909
-6.10256
-6.10677
-6.11178
-6.11764
-6.1244
-6.13207
-6.14069
-6.15026
-6.1608
-6.17229
-6.18474
-6.19813
-6.21246
-6.2277
-6.24384
-6.26084
-6.27866
-6.29728
-6.31667
-6.3368
-6.35765
-6.3792
-6.40141
-6.42427
-6.44774
-6.47179
-6.49642
-6.52158
-6.54725
-6.57342
-6.60005
-6.62713
-6.65463
-6.68253
-6.7108
-6.73944
-6.76842
-6.79773
-6.82735
-6.85728
-6.88751
-6.91803
-6.94884
-6.97993
-7.01131
-7.04299
-7.07499
-7.10732
-7.13999
-7.17305
-7.20652
-7.24045
-7.27488
-7.30988
-7.3455
-7.38184
-7.41896
-7.45697
-7.49596
-7.53604
-7.57733
-7.61995
-7.66404
-7.70974
-7.75718
-7.80652
-7.8579
-7.91144
-7.96728
-8.02554
-8.0863
-8.14963
-8.21556
-8.28406
-8.35504
-8.42834
-8.50367
-8.58065
-8.65874
-8.73722
-8.81519
-8.89148
-8.96463
-9.03286
-9.09399
-9.14545
-9.18419
-9.20664
-9.20848
-9.18467
-9.12963
-9.03761
-8.90245
-8.71617
-8.46844
-8.1492
-7.74976
-7.26187
-6.67818
-5.99273
-5.20158
-4.3034
-3.30007
-2.19716
-1.0043
0.264735
1.59235
2.95805
4.33941
5.71212
7.05019
8.32843
9.52853
10.6458
11.6836
12.6357
13.4918
14.2504
14.9131
15.4836
15.9684
16.3757
16.7138
16.9913
17.2161
17.3958
17.5371
17.6462
17.7285
17.7887
17.8306
17.8579
17.8734
17.8794
17.8781
17.871
17.8595
17.8447
17.8275
17.8086
17.7886
17.768
17.7471
17.7261
17.7053
17.6848
17.6647
17.6451
17.6261
17.6077
17.59
17.5729
17.5566
17.5412
17.5268
17.5137
17.5021
17.4927
17.4861
17.4833
17.4859
17.4959
17.5169
17.5517
17.611
17.6573
-6.06932
-6.0724
-6.07594
-6.07859
-6.08049
-6.08199
-6.08326
-6.08444
-6.08566
-6.08703
-6.08868
-6.09069
-6.09315
-6.09617
-6.0998
-6.10412
-6.10919
-6.11505
-6.12174
-6.1293
-6.13776
-6.14712
-6.1574
-6.1686
-6.18073
-6.19377
-6.20772
-6.22256
-6.23828
-6.25484
-6.27223
-6.29042
-6.30938
-6.32909
-6.34953
-6.37066
-6.39247
-6.41492
-6.43799
-6.46166
-6.4859
-6.51068
-6.53599
-6.5618
-6.58809
-6.61483
-6.642
-6.66957
-6.69753
-6.72586
-6.75454
-6.78355
-6.81289
-6.84254
-6.87249
-6.90273
-6.93326
-6.96407
-6.99518
-7.0266
-7.05833
-7.0904
-7.12281
-7.15561
-7.18882
-7.22248
-7.25665
-7.29137
-7.32673
-7.36279
-7.39965
-7.43739
-7.47613
-7.51596
-7.55701
-7.59941
-7.6433
-7.68883
-7.73615
-7.78541
-7.83677
-7.89037
-7.94637
-8.00488
-8.06604
-8.12993
-8.19661
-8.26608
-8.33829
-8.41311
-8.49033
-8.5696
-8.65046
-8.73227
-8.81417
-8.89509
-8.97367
-9.04822
-9.11667
-9.17655
-9.22494
-9.25837
-9.27267
-9.26293
-9.22366
-9.1492
-9.03342
-8.86829
-8.64327
-8.34811
-7.97392
-7.51212
-6.95489
-6.29568
-5.52973
-4.65482
-3.67187
-2.5856
-1.40493
-0.143032
1.18291
2.55238
3.94182
5.32405
6.67018
7.95629
9.17218
10.3188
11.3873
12.3621
13.2369
14.0121
14.6902
15.2756
15.7751
16.1965
16.5482
16.8387
17.0757
17.2669
17.4189
17.538
17.6294
17.698
17.7476
17.7819
17.8037
17.8156
17.8194
17.8171
17.8098
17.7989
17.7852
17.7695
17.7524
17.7343
17.7157
17.6968
17.6779
17.6591
17.6406
17.6225
17.6048
17.5876
17.5709
17.5548
17.5394
17.5247
17.511
17.4984
17.4872
17.478
17.4712
17.4679
17.4691
17.4765
17.4923
17.5171
17.5581
17.575
-6.05883
-6.06303
-6.06798
-6.07156
-6.0741
-6.07616
-6.07797
-6.07969
-6.08143
-6.0833
-6.08541
-6.08786
-6.09073
-6.0941
-6.09803
-6.10261
-6.10788
-6.1139
-6.1207
-6.12832
-6.13679
-6.14613
-6.15635
-6.16746
-6.17946
-6.19235
-6.20611
-6.22074
-6.23623
-6.25254
-6.26967
-6.28759
-6.30628
-6.32572
-6.34587
-6.36672
-6.38824
-6.41041
-6.4332
-6.45659
-6.48055
-6.50507
-6.53011
-6.55566
-6.58168
-6.60817
-6.63508
-6.66241
-6.69013
-6.71823
-6.74669
-6.77549
-6.80461
-6.83405
-6.8638
-6.89383
-6.92416
-6.95478
-6.9857
-7.01693
-7.04849
-7.08037
-7.11262
-7.14524
-7.17828
-7.21177
-7.24576
-7.28032
-7.31551
-7.35142
-7.38813
-7.42574
-7.46436
-7.50409
-7.54506
-7.58741
-7.63129
-7.67685
-7.72426
-7.77367
-7.82526
-7.87919
-7.93563
-7.99473
-8.05663
-8.12145
-8.18928
-8.26015
-8.33405
-8.41092
-8.49058
-8.57276
-8.65705
-8.74288
-8.82948
-8.91586
-9.00075
-9.08255
-9.15932
-9.22868
-9.28783
-9.3334
-9.36135
-9.36687
-9.34453
-9.28867
-9.19317
-9.04994
-8.84824
-8.57733
-8.22782
-7.79076
-7.2578
-6.62164
-5.87661
-5.01946
-4.05019
-2.9727
-1.7953
-0.530546
0.804504
2.18826
3.59454
4.99257
6.35318
7.65928
8.90785
10.0889
11.1819
12.1744
13.0632
13.8495
14.5369
15.1308
15.6383
16.0677
16.4274
16.7255
16.9701
17.1685
17.3274
17.453
17.5506
17.6248
17.6798
17.7191
17.7455
17.7616
17.7693
17.7705
17.7666
17.7587
17.7477
17.7345
17.7197
17.7037
17.687
17.6699
17.6526
17.6354
17.6182
17.6013
17.5848
17.5686
17.5528
17.5376
17.5229
17.5089
17.4957
17.4834
17.4725
17.4631
17.4559
17.4515
17.4508
17.4547
17.4645
17.4791
17.5037
17.4968
-6.04895
-6.054
-6.06011
-6.06459
-6.06783
-6.07052
-6.07293
-6.07522
-6.07751
-6.07992
-6.08255
-6.08548
-6.0888
-6.09259
-6.09691
-6.10183
-6.10741
-6.11368
-6.12071
-6.12852
-6.13714
-6.1466
-6.15689
-6.16805
-6.18005
-6.19292
-6.20663
-6.22118
-6.23655
-6.25274
-6.26972
-6.28747
-6.30599
-6.32523
-6.34519
-6.36584
-6.38716
-6.40912
-6.4317
-6.45487
-6.47862
-6.50292
-6.52775
-6.55308
-6.5789
-6.60517
-6.63189
-6.65902
-6.68655
-6.71446
-6.74274
-6.77137
-6.80033
-6.8296
-6.85918
-6.88907
-6.91925
-6.94973
-6.98052
-7.01162
-7.04305
-7.07482
-7.10695
-7.13947
-7.17241
-7.2058
-7.23972
-7.2742
-7.30934
-7.34521
-7.3819
-7.41951
-7.45814
-7.49793
-7.539
-7.5815
-7.62558
-7.6714
-7.71914
-7.76897
-7.82109
-7.87568
-7.93291
-7.99297
-8.05602
-8.1222
-8.19163
-8.2644
-8.34053
-8.42001
-8.50272
-8.58844
-8.67683
-8.7674
-8.85944
-8.95206
-9.04407
-9.13398
-9.21994
-9.29969
-9.3705
-9.42912
-9.47162
-9.49325
-9.48861
-9.45194
-9.37713
-9.25612
-9.07772
-8.83035
-8.50411
-8.08959
-7.57782
-6.96069
-6.23153
-5.38604
-4.4233
-3.34658
-2.16371
-0.88672
0.466895
1.87299
3.30216
4.72186
6.10744
7.44953
8.73696
9.94599
11.0577
12.0637
12.9616
13.7536
14.4445
15.0408
15.5504
15.982
16.3442
16.6453
16.8931
17.095
17.2575
17.3866
17.4878
17.5655
17.624
17.6665
17.696
17.715
17.7256
17.7294
17.728
17.7224
17.7136
17.7024
17.6895
17.6753
17.6602
17.6446
17.6287
17.6128
17.5968
17.5811
17.5655
17.5503
17.5354
17.5209
17.5069
17.4934
17.4806
17.4686
17.4576
17.448
17.44
17.4342
17.4312
17.4312
17.4347
17.4396
17.4496
17.4236
-6.04087
-6.04653
-6.05346
-6.05862
-6.06243
-6.06563
-6.06855
-6.07132
-6.07408
-6.07695
-6.08004
-6.08342
-6.08719
-6.0914
-6.09613
-6.10143
-6.10737
-6.11398
-6.1213
-6.12938
-6.13823
-6.14788
-6.15833
-6.16961
-6.1817
-6.19462
-6.20836
-6.2229
-6.23824
-6.25437
-6.27126
-6.28892
-6.30731
-6.32643
-6.34624
-6.36674
-6.38789
-6.40968
-6.43209
-6.45509
-6.47866
-6.50278
-6.52742
-6.55257
-6.5782
-6.6043
-6.63083
-6.6578
-6.68516
-6.71292
-6.74104
-6.76952
-6.79834
-6.82747
-6.85693
-6.88669
-6.91676
-6.94714
-6.97783
-7.00885
-7.0402
-7.0719
-7.10397
-7.13643
-7.16933
-7.2027
-7.23661
-7.27111
-7.30629
-7.34222
-7.379
-7.41673
-7.45553
-7.49554
-7.53688
-7.57971
-7.6242
-7.67052
-7.71886
-7.76941
-7.82237
-7.87795
-7.93635
-7.99776
-8.06238
-8.13037
-8.2019
-8.27708
-8.356
-8.43867
-8.52503
-8.61493
-8.70809
-8.80407
-8.90227
-9.00185
-9.10173
-9.20051
-9.29642
-9.38729
-9.4705
-9.54288
-9.60057
-9.63891
-9.65241
-9.63524
-9.58123
-9.48232
-9.32656
-9.10142
-8.79647
-8.40175
-7.90763
-7.30516
-6.58662
-5.74648
-4.78307
-3.69912
-2.5023
-1.20436
0.175967
1.61081
3.06918
4.52072
5.94695
7.33361
8.6556
9.88759
11.0146
12.0295
12.931
13.7226
14.4105
15.0027
15.5081
15.9361
16.2955
16.5949
16.8418
17.0434
17.2063
17.3363
17.4387
17.5179
17.5779
17.6222
17.6535
17.6744
17.6868
17.6925
17.6929
17.689
17.6819
17.6724
17.661
17.6483
17.6346
17.6204
17.6057
17.5909
17.5761
17.5614
17.5468
17.5325
17.5184
17.5046
17.4912
17.4782
17.4657
17.4538
17.4427
17.4326
17.4236
17.4162
17.4105
17.4064
17.4038
17.3997
17.3971
17.3557
-6.03551
-6.04138
-6.04866
-6.05415
-6.05826
-6.06177
-6.065
-6.06808
-6.07118
-6.07439
-6.07783
-6.08158
-6.08572
-6.09031
-6.09543
-6.10111
-6.1074
-6.11436
-6.122
-6.13037
-6.13948
-6.14935
-6.16
-6.17143
-6.18365
-6.19666
-6.21046
-6.22503
-6.24037
-6.25647
-6.27333
-6.29092
-6.30922
-6.32824
-6.34794
-6.3683
-6.38932
-6.41097
-6.43322
-6.45607
-6.47948
-6.50343
-6.52791
-6.55289
-6.57836
-6.60429
-6.63067
-6.65748
-6.6847
-6.71231
-6.7403
-6.76865
-6.79734
-6.82636
-6.85571
-6.88537
-6.91536
-6.94567
-6.97629
-7.00725
-7.03856
-7.07022
-7.10227
-7.13473
-7.16764
-7.20105
-7.23502
-7.26961
-7.30491
-7.34099
-7.37796
-7.41594
-7.45504
-7.49541
-7.53718
-7.58054
-7.62564
-7.67269
-7.72188
-7.77343
-7.82754
-7.88445
-7.94436
-8.00752
-8.07412
-8.14438
-8.21848
-8.2966
-8.37884
-8.46526
-8.55585
-8.65053
-8.74906
-8.85109
-8.95608
-9.06328
-9.17167
-9.27994
-9.38641
-9.48898
-9.58511
-9.67171
-9.745
-9.80032
-9.83212
-9.83448
-9.80116
-9.72375
-9.58935
-9.38466
-9.09882
-8.72132
-8.24176
-7.65039
-6.93825
-6.09826
-5.12806
-4.03003
-2.81194
-1.48562
-0.0712481
1.39969
2.89799
4.39688
5.87455
7.30481
8.65813
9.91189
11.0518
12.0712
12.9703
13.7545
14.4321
15.0132
15.508
15.9264
16.2778
16.5707
16.8127
17.0108
17.1712
17.2995
17.4009
17.4797
17.5398
17.5845
17.6166
17.6384
17.6519
17.6587
17.6604
17.6578
17.652
17.6438
17.6337
17.6222
17.6098
17.5967
17.5832
17.5695
17.5558
17.542
17.5283
17.5148
17.5015
17.4884
17.4755
17.4629
17.4507
17.4389
17.4275
17.4168
17.4067
17.3975
17.389
17.3809
17.3725
17.3601
17.3468
17.2929
-6.03274
-6.03844
-6.0456
-6.05111
-6.05528
-6.05888
-6.06222
-6.06544
-6.06871
-6.07212
-6.07579
-6.0798
-6.08423
-6.08914
-6.09457
-6.10058
-6.1072
-6.11446
-6.1224
-6.13103
-6.14039
-6.15048
-6.16131
-6.1729
-6.18524
-6.19835
-6.21221
-6.22682
-6.24217
-6.25826
-6.27508
-6.29262
-6.31085
-6.32978
-6.34937
-6.36963
-6.39052
-6.41204
-6.43416
-6.45686
-6.48012
-6.50393
-6.52826
-6.55309
-6.5784
-6.60419
-6.63043
-6.6571
-6.68419
-6.71167
-6.73954
-6.76777
-6.79636
-6.82529
-6.85455
-6.88415
-6.91407
-6.94433
-6.97491
-7.00584
-7.03713
-7.06878
-7.10084
-7.13334
-7.16631
-7.1998
-7.23389
-7.26863
-7.30411
-7.34042
-7.37768
-7.416
-7.45551
-7.49637
-7.53873
-7.58277
-7.62867
-7.67666
-7.72693
-7.77972
-7.83526
-7.89379
-7.95555
-8.0208
-8.08978
-8.16272
-8.23985
-8.32136
-8.4074
-8.49806
-8.5934
-8.69337
-8.79781
-8.90641
-9.01871
-9.13401
-9.25139
-9.36957
-9.48697
-9.60154
-9.71083
-9.8118
-9.90071
-9.97288
-10.0227
-10.0444
-10.0314
-9.97428
-9.85912
-9.67262
-9.40378
-9.0415
-8.57462
-7.99248
-7.28462
-6.44196
-5.46189
-4.34647
-3.10358
-1.74479
-0.290301
1.22667
2.77923
4.33898
5.87253
7.34856
8.7369
10.0144
11.1663
12.1867
13.0775
13.847
14.5067
15.0692
15.5464
15.9492
16.2874
16.5694
16.8028
16.9941
17.1492
17.2737
17.3722
17.4491
17.5079
17.5519
17.5837
17.6057
17.6196
17.6272
17.6296
17.628
17.6232
17.616
17.607
17.5967
17.5854
17.5734
17.561
17.5483
17.5355
17.5227
17.5099
17.4972
17.4846
17.4721
17.4598
17.4476
17.4356
17.4238
17.4121
17.4007
17.3894
17.3783
17.3671
17.355
17.3411
17.3213
17.2988
17.235
-6.03214
-6.03735
-6.04401
-6.04921
-6.05321
-6.05669
-6.05997
-6.06318
-6.06648
-6.06998
-6.07377
-6.07795
-6.08258
-6.08771
-6.09338
-6.09963
-6.10649
-6.114
-6.12216
-6.13101
-6.14056
-6.15082
-6.1618
-6.17351
-6.18596
-6.19913
-6.21304
-6.22768
-6.24304
-6.25911
-6.27589
-6.29337
-6.31153
-6.33037
-6.34987
-6.37002
-6.3908
-6.41219
-6.43418
-6.45675
-6.47988
-6.50355
-6.52774
-6.55244
-6.57762
-6.60328
-6.6294
-6.65595
-6.68292
-6.7103
-6.73806
-6.7662
-6.7947
-6.82356
-6.85276
-6.8823
-6.91218
-6.9424
-6.97296
-7.00388
-7.03516
-7.06684
-7.09894
-7.13149
-7.16455
-7.19816
-7.2324
-7.26734
-7.30306
-7.33966
-7.37727
-7.416
-7.45601
-7.49746
-7.54051
-7.58537
-7.63223
-7.68132
-7.73285
-7.78709
-7.84428
-7.90468
-7.96857
-8.03621
-8.10789
-8.18387
-8.26438
-8.34965
-8.43987
-8.53518
-8.63566
-8.74131
-8.85203
-8.96757
-9.0875
-9.21118
-9.33774
-9.46596
-9.5943
-9.72078
-9.843
-9.95796
-10.0619
-10.1501
-10.217
-10.2571
-10.2635
-10.2243
-10.1248
-9.95323
-9.69867
-9.3494
-8.89349
-8.31941
-7.61526
-6.77005
-5.78156
-4.65148
-3.38736
-2.00036
-0.506583
1.06449
2.67891
4.30516
5.9044
7.43854
8.87321
10.1821
11.3493
12.3698
13.2482
13.9966
14.6308
15.1669
15.6195
16.0008
16.3207
16.5876
16.8088
16.9904
17.138
17.2565
17.3506
17.4241
17.4806
17.523
17.5539
17.5753
17.5892
17.597
17.5999
17.5989
17.595
17.5887
17.5807
17.5713
17.561
17.5501
17.5387
17.527
17.5151
17.5032
17.4913
17.4794
17.4676
17.4558
17.444
17.4322
17.4203
17.4085
17.3965
17.3843
17.3719
17.3588
17.3449
17.3291
17.3101
17.2839
17.2535
17.1816
-6.03316
-6.0376
-6.04339
-6.04803
-6.05165
-6.05486
-6.05793
-6.06102
-6.06425
-6.06775
-6.07159
-6.07585
-6.08059
-6.08585
-6.09167
-6.09807
-6.10509
-6.11275
-6.12106
-6.13004
-6.13971
-6.15008
-6.16115
-6.17293
-6.18542
-6.19863
-6.21256
-6.22719
-6.24253
-6.25857
-6.2753
-6.29271
-6.3108
-6.32955
-6.34895
-6.36899
-6.38966
-6.41094
-6.43281
-6.45525
-6.47826
-6.5018
-6.52587
-6.55045
-6.57553
-6.60107
-6.62708
-6.65353
-6.6804
-6.70769
-6.73537
-6.76343
-6.79187
-6.82067
-6.84982
-6.87932
-6.90917
-6.93937
-6.96992
-7.00083
-7.03213
-7.06384
-7.09599
-7.12862
-7.16178
-7.19553
-7.22994
-7.26508
-7.30107
-7.33799
-7.37598
-7.41518
-7.45574
-7.49784
-7.54166
-7.58742
-7.63533
-7.68563
-7.73855
-7.79438
-7.85338
-7.91584
-7.98206
-8.05234
-8.12696
-8.20621
-8.29037
-8.37968
-8.47435
-8.57456
-8.68044
-8.79202
-8.90923
-9.03186
-9.1595
-9.29154
-9.42711
-9.56506
-9.70386
-9.84159
-9.97585
-10.1037
-10.2212
-10.3236
-10.4056
-10.4621
-10.4852
-10.4592
-10.3701
-10.2086
-9.9641
-9.62421
-9.17651
-8.60922
-7.91075
-7.06949
-6.07975
-4.94289
-3.66447
-2.25575
-0.732222
0.882611
2.5551
4.24908
5.92193
7.52899
9.02811
10.3854
11.5801
12.6066
13.4728
14.1963
14.7988
15.3017
15.7231
16.0771
16.374
16.622
16.8278
16.9971
17.135
17.246
17.3342
17.4033
17.4565
17.4965
17.5258
17.5464
17.5598
17.5675
17.5706
17.5701
17.5668
17.5613
17.5542
17.5458
17.5365
17.5265
17.5161
17.5055
17.4946
17.4836
17.4726
17.4615
17.4504
17.4392
17.428
17.4165
17.4049
17.393
17.3806
17.3677
17.3541
17.3392
17.3227
17.3034
17.2799
17.2479
17.2108
17.1325
-6.03509
-6.03858
-6.04322
-6.04708
-6.05018
-6.053
-6.05579
-6.05868
-6.0618
-6.06523
-6.06905
-6.07332
-6.07809
-6.08339
-6.08927
-6.09574
-6.10282
-6.11054
-6.11891
-6.12794
-6.13765
-6.14805
-6.15914
-6.17092
-6.18342
-6.19661
-6.21051
-6.2251
-6.24039
-6.25636
-6.27302
-6.29035
-6.30835
-6.327
-6.34631
-6.36624
-6.3868
-6.40796
-6.42972
-6.45205
-6.47495
-6.49839
-6.52235
-6.54683
-6.57181
-6.59726
-6.62318
-6.64955
-6.67634
-6.70356
-6.73117
-6.75918
-6.78757
-6.81632
-6.84543
-6.8749
-6.90472
-6.9349
-6.96544
-6.99635
-7.02766
-7.05939
-7.09159
-7.12428
-7.15754
-7.19141
-7.22599
-7.26134
-7.29757
-7.33481
-7.37319
-7.41286
-7.45398
-7.49675
-7.54138
-7.58807
-7.63707
-7.68862
-7.743
-7.8005
-7.86141
-7.92605
-7.99472
-8.06775
-8.14545
-8.22813
-8.31607
-8.40956
-8.50882
-8.61406
-8.72544
-8.84302
-8.96673
-9.09634
-9.23147
-9.3715
-9.51557
-9.66253
-9.81087
-9.95868
-10.1036
-10.2425
-10.3714
-10.4855
-10.5803
-10.6508
-10.6863
-10.6681
-10.5847
-10.4298
-10.1922
-9.85909
-9.41768
-8.85565
-8.16198
-7.32637
-6.3399
-5.20237
-3.91807
-2.49693
-0.954178
0.688311
2.40056
4.14717
5.88584
7.56897
9.1471
10.5751
11.8203
12.8701
13.7333
14.4339
15.0021
15.4669
15.8518
16.1735
16.4432
16.669
16.8567
17.0116
17.138
17.24
17.3212
17.385
17.4342
17.4714
17.4987
17.5179
17.5306
17.5381
17.5413
17.5412
17.5384
17.5337
17.5274
17.5199
17.5116
17.5026
17.4932
17.4836
17.4737
17.4637
17.4535
17.4433
17.433
17.4225
17.4118
17.4007
17.3893
17.3773
17.3647
17.3511
17.3363
17.3197
17.3007
17.2781
17.2505
17.2136
17.1707
17.0873
-6.03728
-6.03969
-6.04301
-6.04595
-6.04844
-6.05082
-6.05329
-6.05595
-6.05891
-6.06222
-6.06596
-6.07017
-6.0749
-6.08018
-6.08603
-6.09248
-6.09954
-6.10723
-6.11558
-6.12458
-6.13425
-6.14461
-6.15565
-6.16739
-6.17982
-6.19295
-6.20678
-6.22129
-6.2365
-6.25238
-6.26895
-6.28618
-6.30408
-6.32263
-6.34183
-6.36165
-6.3821
-6.40316
-6.42481
-6.44705
-6.46984
-6.49318
-6.51706
-6.54145
-6.56635
-6.59173
-6.61757
-6.64387
-6.6706
-6.69775
-6.72531
-6.75326
-6.78159
-6.8103
-6.83936
-6.86879
-6.89857
-6.9287
-6.9592
-6.99008
-7.02137
-7.05309
-7.08529
-7.118
-7.1513
-7.18524
-7.21991
-7.25541
-7.29184
-7.32933
-7.36803
-7.4081
-7.44973
-7.49312
-7.53848
-7.58606
-7.63611
-7.6889
-7.74472
-7.8039
-7.86674
-7.93358
-8.00475
-8.08059
-8.16144
-8.24762
-8.33945
-8.43722
-8.54119
-8.65158
-8.76856
-8.89217
-9.02233
-9.1588
-9.30119
-9.44887
-9.60097
-9.75632
-9.9134
-10.0703
-10.2246
-10.373
-10.5113
-10.6353
-10.741
-10.8224
-10.8645
-10.8489
-10.768
-10.6165
-10.3827
-10.0535
-9.61563
-9.05634
-8.36407
-7.52874
-6.54248
-5.40376
-4.1162
-2.68921
-1.13797
0.516228
2.24589
4.01864
5.79664
7.53613
9.18729
10.697
12.0172
13.1183
14
14.6895
15.2273
15.6531
15.9984
16.2843
16.5238
16.7247
16.8923
17.031
17.1446
17.2366
17.31
17.3678
17.4126
17.4465
17.4715
17.4893
17.5012
17.5082
17.5115
17.5117
17.5095
17.5054
17.5
17.4934
17.4861
17.4782
17.4698
17.4612
17.4524
17.4433
17.4342
17.4248
17.4153
17.4055
17.3954
17.3848
17.3735
17.3616
17.3486
17.3344
17.3185
17.3003
17.279
17.2535
17.2223
17.1811
17.1333
17.0457
-6.03915
-6.04046
-6.0424
-6.04434
-6.04619
-6.04812
-6.05025
-6.05266
-6.05541
-6.05856
-6.06217
-6.06626
-6.07088
-6.07605
-6.0818
-6.08814
-6.0951
-6.10269
-6.11093
-6.11983
-6.12941
-6.13966
-6.1506
-6.16223
-6.17455
-6.18757
-6.20128
-6.21569
-6.23078
-6.24656
-6.26301
-6.28013
-6.29791
-6.31635
-6.33543
-6.35514
-6.37548
-6.39643
-6.41798
-6.44011
-6.46281
-6.48607
-6.50986
-6.53418
-6.55899
-6.58429
-6.61007
-6.63629
-6.66296
-6.69004
-6.71753
-6.7454
-6.77366
-6.80228
-6.83125
-6.86058
-6.89026
-6.92029
-6.95068
-6.98145
-7.01262
-7.04424
-7.07633
-7.10895
-7.14217
-7.17606
-7.2107
-7.2462
-7.28268
-7.32028
-7.35916
-7.3995
-7.44149
-7.48536
-7.53133
-7.57967
-7.63066
-7.6846
-7.74179
-7.80259
-7.86732
-7.93633
-8.01
-8.08867
-8.1727
-8.26246
-8.35826
-8.46042
-8.5692
-8.68485
-8.80749
-8.93716
-9.07374
-9.21698
-9.36647
-9.52155
-9.68133
-9.8446
-10.0098
-10.175
-10.3375
-10.4939
-10.6401
-10.7727
-10.8876
-10.9753
-11.0166
-10.9986
-10.9176
-10.7661
-10.5319
-10.202
-9.76291
-9.20174
-8.50668
-7.66775
-6.67785
-5.53517
-4.24339
-2.81218
-1.25727
0.399608
2.13151
3.90777
5.69481
7.45593
9.14926
10.7248
12.126
13.3029
14.2332
14.9349
15.4553
15.8473
16.1537
16.4029
16.6105
16.7849
16.931
17.0525
17.1524
17.2337
17.2988
17.3503
17.3904
17.4209
17.4436
17.4598
17.4708
17.4775
17.4807
17.4813
17.4797
17.4764
17.4718
17.4662
17.46
17.4531
17.4459
17.4383
17.4306
17.4226
17.4144
17.406
17.3973
17.3883
17.3788
17.3686
17.3577
17.3458
17.3326
17.3178
17.3009
17.2812
17.258
17.2298
17.1953
17.1505
17.0984
17.0077
-6.04023
-6.04054
-6.04118
-6.04214
-6.04335
-6.04482
-6.04658
-6.04869
-6.05118
-6.05411
-6.0575
-6.0614
-6.06583
-6.07081
-6.07637
-6.08254
-6.08933
-6.09675
-6.10482
-6.11356
-6.12297
-6.13307
-6.14386
-6.15534
-6.16751
-6.18039
-6.19396
-6.20823
-6.22318
-6.23882
-6.25514
-6.27213
-6.28978
-6.30809
-6.32705
-6.34664
-6.36686
-6.3877
-6.40913
-6.43116
-6.45376
-6.47692
-6.50062
-6.52484
-6.54956
-6.57477
-6.60045
-6.62657
-6.65313
-6.68009
-6.70745
-6.73519
-6.76329
-6.79174
-6.82053
-6.84966
-6.87912
-6.90891
-6.93905
-6.96955
-7.00045
-7.03179
-7.06359
-7.09594
-7.12888
-7.1625
-7.1969
-7.23219
-7.2685
-7.306
-7.34484
-7.38523
-7.42737
-7.47151
-7.5179
-7.56683
-7.6186
-7.67353
-7.73197
-7.79427
-7.86079
-7.93191
-8.00801
-8.08948
-8.1767
-8.27003
-8.36983
-8.4764
-8.59003
-8.71093
-8.83921
-8.97484
-9.1177
-9.26753
-9.42385
-9.58597
-9.75295
-9.92353
-10.0961
-10.2684
-10.4377
-10.6006
-10.7536
-10.8936
-11.0142
-11.1003
-11.1352
-11.1126
-11.0288
-10.8739
-10.6356
-10.3006
-9.85575
-9.28796
-8.58552
-7.73876
-6.74129
-5.59163
-4.29399
-2.8587
-1.30236
0.352555
2.07873
3.84579
5.62205
7.37566
9.07377
10.6779
12.1373
13.392
14.394
15.1369
15.6618
16.0325
16.3059
16.5203
16.6964
16.8443
16.9686
17.0726
17.1587
17.229