/*--------------------------------*- C++ -*----------------------------------*\
| =========                 |                                                 |
| \\      /  F ield         | OpenFOAM: The Open Source CFD Toolbox           |
|  \\    /   O peration     | Version:  1.4.2                                 |
|   \\  /    A nd           | Web:      http://www.openfoam.org               |
|    \\/     M anipulation  |                                                 |
\*---------------------------------------------------------------------------*/
FoamFile
{
    version     2.0;
    format      ascii;
    class       surfaceScalarField;
    object      phi;
    location    "500";
}
// * * * * * * * * * * * * * * * * * * * * * * * * * * * * * * * * * * * * * //

dimensions      [0 3 -1 0 0 0 0];

internalField   nonuniform List<scalar> 
24170
(
3.03918e-06
9.47157e-08
2.96658e-06
7.2605e-08
2.90194e-06
6.46395e-08
2.84069e-06
6.1255e-08
2.78289e-06
5.77938e-08
2.72879e-06
5.41005e-08
2.67831e-06
5.04842e-08
2.63128e-06
4.70237e-08
2.58757e-06
4.3712e-08
2.54702e-06
4.05416e-08
2.50951e-06
3.75084e-08
2.47491e-06
3.46019e-08
2.44311e-06
3.1801e-08
2.41404e-06
2.90663e-08
2.38772e-06
2.63203e-08
2.36433e-06
2.33859e-08
2.34441e-06
1.99182e-08
9.82653e-09
2.33459e-06
3.46199e-06
8.91763e-08
3.45385e-06
8.07496e-08
3.44439e-06
7.41037e-08
3.43374e-06
7.19052e-08
3.42216e-06
6.93713e-08
3.41005e-06
6.62083e-08
3.39763e-06
6.28979e-08
3.38505e-06
5.96005e-08
3.37243e-06
5.63294e-08
3.35988e-06
5.30876e-08
3.34751e-06
4.98773e-08
3.33542e-06
4.66871e-08
3.32373e-06
4.34833e-08
3.3126e-06
4.01953e-08
3.30225e-06
3.66767e-08
3.29303e-06
3.26034e-08
3.2858e-06
2.71505e-08
1.76735e-08
3.27795e-06
3.82432e-06
7.70498e-08
3.82629e-06
7.87878e-08
3.82557e-06
7.48205e-08
3.824e-06
7.34789e-08
3.82179e-06
7.15755e-08
3.81913e-06
6.88698e-08
3.81616e-06
6.5868e-08
3.81297e-06
6.2782e-08
3.80965e-06
5.96546e-08
3.80623e-06
5.65003e-08
3.80278e-06
5.33239e-08
3.79936e-06
5.01096e-08
3.79603e-06
4.68126e-08
3.79288e-06
4.33431e-08
3.79002e-06
3.95311e-08
3.78757e-06
3.50545e-08
3.7854e-06
2.93228e-08
2.12941e-08
3.78178e-06
4.21689e-06
6.47179e-08
4.2221e-06
7.35779e-08
4.22426e-06
7.26605e-08
4.2255e-06
7.22462e-08
4.22618e-06
7.08927e-08
4.22645e-06
6.86009e-08
4.22644e-06
6.58785e-08
4.22624e-06
6.29714e-08
4.22594e-06
5.99555e-08
4.22558e-06
5.68622e-08
4.2252e-06
5.37021e-08
4.22485e-06
5.04607e-08
4.22456e-06
4.70914e-08
4.2244e-06
4.35044e-08
4.22439e-06
3.95454e-08
4.22448e-06
3.49662e-08
4.22436e-06
2.94387e-08
2.26774e-08
4.22298e-06
4.64869e-06
5.33358e-08
4.65543e-06
6.68437e-08
4.65928e-06
6.88106e-08
4.66205e-06
6.9474e-08
4.66421e-06
6.87271e-08
4.66595e-06
6.68695e-08
4.66738e-06
6.44452e-08
4.66861e-06
6.1734e-08
4.66972e-06
5.88445e-08
4.67076e-06
5.58263e-08
4.67176e-06
5.26994e-08
4.67276e-06
4.94549e-08
4.6738e-06
4.60529e-08
4.67489e-06
4.2417e-08
4.676e-06
3.84284e-08
4.67704e-06
3.39273e-08
4.6777e-06
2.87774e-08
2.3032e-08
4.67735e-06
5.12455e-06
4.33834e-08
5.13198e-06
5.94161e-08
5.13703e-06
6.37573e-08
5.141e-06
6.55014e-08
5.14429e-06
6.54444e-08
5.14707e-06
6.40892e-08
5.1495e-06
6.20138e-08
5.15169e-06
5.95378e-08
5.15373e-06
5.68072e-08
5.15566e-06
5.38953e-08
5.15752e-06
5.08351e-08
5.15935e-06
4.76281e-08
5.16115e-06
4.42466e-08
5.16293e-06
4.06364e-08
5.16464e-06
3.67203e-08
5.16615e-06
3.24165e-08
5.16722e-06
2.77074e-08
2.27714e-08
5.16748e-06
5.64938e-06
3.50122e-08
5.65695e-06
5.18504e-08
5.66279e-06
5.79127e-08
5.6677e-06
6.05908e-08
5.67193e-06
6.12115e-08
5.67563e-06
6.03907e-08
5.67893e-06
5.87133e-08
5.68194e-06
5.65253e-08
5.68475e-06
5.40033e-08
5.6874e-06
5.12433e-08
5.68994e-06
4.8295e-08
5.69239e-06
4.51747e-08
5.69476e-06
4.18728e-08
5.69704e-06
3.83608e-08
5.69915e-06
3.46026e-08
5.70099e-06
3.05758e-08
5.70238e-06
2.63266e-08
2.2056e-08
5.70309e-06
4.4112e-06
2.99259e-08
4.41649e-06
4.65574e-08
4.42099e-06
5.3413e-08
4.42492e-06
5.66653e-08
4.42841e-06
5.77176e-08
4.43154e-06
5.72585e-08
4.43438e-06
5.58714e-08
4.437e-06
5.39081e-08
4.43944e-06
5.156e-08
4.44175e-06
4.89367e-08
4.44394e-06
4.60991e-08
4.44604e-06
4.30747e-08
4.44805e-06
3.98678e-08
4.44994e-06
3.64688e-08
4.45167e-06
3.28671e-08
4.45318e-06
2.90717e-08
4.45435e-06
2.51527e-08
2.12983e-08
4.45511e-06
5.14459e-06
2.51927e-08
5.15006e-06
4.10912e-08
5.15503e-06
4.8437e-08
5.15956e-06
5.21343e-08
5.1637e-06
5.35779e-08
5.16749e-06
5.34737e-08
5.17097e-06
5.23875e-08
5.17421e-06
5.06707e-08
5.17724e-06
4.85246e-08
5.18011e-06
4.60699e-08
5.18283e-06
4.33783e-08
5.18541e-06
4.04888e-08
5.18786e-06
3.74202e-08
5.19015e-06
3.41814e-08
5.19223e-06
3.07845e-08
5.19404e-06
2.72621e-08
5.1955e-06
2.36945e-08
2.02504e-08
5.19655e-06
6.0001e-06
2.08904e-08
6.0056e-06
3.55854e-08
6.01094e-06
4.30942e-08
6.01601e-06
4.70633e-08
6.02077e-06
4.88169e-08
6.02522e-06
4.90323e-08
6.02936e-06
4.82379e-08
6.03326e-06
4.67758e-08
6.03693e-06
4.48518e-08
6.04041e-06
4.25939e-08
6.0437e-06
4.00831e-08
6.04682e-06
3.73696e-08
6.04975e-06
3.44857e-08
6.05248e-06
3.1457e-08
6.05495e-06
2.83131e-08
6.05711e-06
2.51013e-08
6.0589e-06
2.19019e-08
1.88589e-08
6.0603e-06
6.9981e-06
1.70557e-08
7.00352e-06
3.01678e-08
7.00911e-06
3.74973e-08
7.01463e-06
4.15449e-08
7.01995e-06
4.34937e-08
7.02502e-06
4.39649e-08
7.02983e-06
4.34322e-08
7.03438e-06
4.22179e-08
7.03871e-06
4.05254e-08
7.04282e-06
3.84862e-08
7.04671e-06
3.61879e-08
7.05039e-06
3.36899e-08
7.05384e-06
3.10362e-08
7.05703e-06
2.82647e-08
7.05993e-06
2.54171e-08
7.06248e-06
2.25467e-08
7.06466e-06
1.97268e-08
1.7075e-08
7.06644e-06
8.16239e-06
1.36749e-08
8.16762e-06
2.49424e-08
8.17336e-06
3.1758e-08
8.17922e-06
3.56802e-08
8.18503e-06
3.76883e-08
8.19066e-06
3.83286e-08
8.19608e-06
3.80092e-08
8.20128e-06
3.70217e-08
8.20625e-06
3.55598e-08
8.21098e-06
3.37537e-08
8.21547e-06
3.1694e-08
8.21971e-06
2.94465e-08
8.22369e-06
2.70629e-08
8.22736e-06
2.45891e-08
8.23071e-06
2.20721e-08
8.23369e-06
1.95648e-08
8.23629e-06
1.71297e-08
1.48591e-08
8.2385e-06
9.52071e-06
1.06944e-08
9.52568e-06
1.9972e-08
9.53146e-06
2.59708e-08
9.53758e-06
2.9561e-08
9.54378e-06
3.14822e-08
9.54992e-06
3.21906e-08
9.55591e-06
3.20229e-08
9.5617e-06
3.1231e-08
9.56727e-06
2.99906e-08
9.5726e-06
2.84253e-08
9.57767e-06
2.66243e-08
9.58246e-06
2.46556e-08
9.58695e-06
2.25742e-08
9.59111e-06
2.04287e-08
9.59491e-06
1.8266e-08
9.59834e-06
1.61337e-08
9.60139e-06
1.40826e-08
1.21826e-08
9.60406e-06
1.11054e-05
8.03576e-09
1.11101e-05
1.52678e-08
1.11158e-05
2.01982e-08
1.11221e-05
2.32542e-08
1.11287e-05
2.49398e-08
1.11353e-05
2.5608e-08
1.11418e-05
2.5523e-08
1.11481e-05
2.48886e-08
1.11542e-05
2.38555e-08
1.11601e-05
2.2534e-08
1.11658e-05
2.10067e-08
1.11711e-05
1.93386e-08
1.11761e-05
1.7583e-08
1.11807e-05
1.57867e-08
1.1185e-05
1.39919e-08
1.11889e-05
1.22387e-08
1.11924e-05
1.05662e-08
9.02629e-09
1.11955e-05
1.29541e-05
5.6086e-09
1.29585e-05
1.07857e-08
1.29643e-05
1.44523e-08
1.29707e-05
1.6786e-08
1.29776e-05
1.80902e-08
1.29846e-05
1.86098e-08
1.29916e-05
1.85348e-08
1.29985e-05
1.80168e-08
1.30051e-05
1.71735e-08
1.30116e-05
1.60952e-08
1.30177e-05
1.4852e-08
1.30236e-05
1.35005e-08
1.30291e-05
1.20876e-08
1.30342e-05
1.06535e-08
1.30389e-05
9.23342e-09
1.30433e-05
7.85878e-09
1.30473e-05
6.55819e-09
5.36949e-09
1.3051e-05
1.51107e-05
3.31153e-09
1.51151e-05
6.42093e-09
1.51209e-05
8.67162e-09
1.51276e-05
1.01161e-08
1.51347e-05
1.09035e-08
1.51422e-05
1.11722e-08
1.51497e-05
1.10374e-08
1.51571e-05
1.05948e-08
1.51643e-05
9.92292e-09
1.51714e-05
9.08522e-09
1.51781e-05
8.13345e-09
1.51845e-05
7.11031e-09
1.51905e-05
6.05187e-09
1.51962e-05
4.98884e-09
1.52014e-05
3.9474e-09
1.52064e-05
2.94999e-09
1.52109e-05
2.01644e-09
1.1739e-09
1.52151e-05
1.76267e-05
1.0176e-09
1.76312e-05
1.98266e-09
1.76372e-05
2.67617e-09
1.76442e-05
3.08749e-09
1.76519e-05
3.24229e-09
1.76599e-05
3.17601e-09
1.7668e-05
2.92548e-09
1.7676e-05
2.52695e-09
1.76839e-05
2.01422e-09
1.76916e-05
1.41802e-09
1.7699e-05
7.66043e-10
1.7706e-05
8.28787e-11
1.77127e-05
-6.09658e-10
1.77189e-05
-1.29265e-09
1.77248e-05
-1.94994e-09
1.77304e-05
-2.56785e-09
1.77355e-05
-3.13411e-09
-3.62999e-09
1.77403e-05
1.78284e-05
-1.16826e-09
1.78326e-05
-2.26287e-09
1.78384e-05
-3.07562e-09
1.78451e-05
-3.66927e-09
1.78525e-05
-4.13293e-09
1.78602e-05
-4.5295e-09
1.7868e-05
-4.89725e-09
1.78758e-05
-5.25756e-09
1.78835e-05
-5.62108e-09
1.78909e-05
-5.98976e-09
1.7898e-05
-6.36044e-09
1.79048e-05
-6.72686e-09
1.79113e-05
-7.08136e-09
1.79174e-05
-7.41619e-09
1.79232e-05
-7.72412e-09
1.79286e-05
-7.99869e-09
1.79337e-05
-8.23338e-09
-8.41569e-09
1.79385e-05
1.58834e-05
-3.23262e-09
1.58873e-05
-6.21331e-09
1.58926e-05
-8.3406e-09
1.58987e-05
-9.77004e-09
1.59053e-05
-1.07245e-08
1.59121e-05
-1.13642e-08
1.5919e-05
-1.17954e-08
1.59259e-05
-1.20918e-08
1.59325e-05
-1.23027e-08
1.5939e-05
-1.24581e-08
1.59452e-05
-1.25754e-08
1.59512e-05
-1.26633e-08
1.59568e-05
-1.27258e-08
1.59622e-05
-1.27638e-08
1.59672e-05
-1.27768e-08
1.5972e-05
-1.27636e-08
1.59765e-05
-1.27216e-08
-1.26426e-08
1.59807e-05
1.41508e-05
-5.38112e-09
1.41548e-05
-1.01997e-08
1.41599e-05
-1.34731e-08
1.41657e-05
-1.55585e-08
1.41719e-05
-1.68594e-08
1.41781e-05
-1.76348e-08
1.41844e-05
-1.80544e-08
1.41905e-05
-1.82403e-08
1.41965e-05
-1.8275e-08
1.42022e-05
-1.82118e-08
1.42078e-05
-1.80839e-08
1.4213e-05
-1.79119e-08
1.4218e-05
-1.7708e-08
1.42227e-05
-1.74797e-08
1.42272e-05
-1.72313e-08
1.42314e-05
-1.69655e-08
1.42353e-05
-1.66823e-08
-1.63771e-08
1.42391e-05
1.26074e-05
-7.80444e-09
1.26117e-05
-1.44713e-08
1.26169e-05
-1.86921e-08
1.26226e-05
-2.12266e-08
1.26285e-05
-2.27137e-08
1.26343e-05
-2.35029e-08
1.26401e-05
-2.38231e-08
1.26457e-05
-2.38399e-08
1.26511e-05
-2.3664e-08
1.26562e-05
-2.33657e-08
1.26611e-05
-2.29896e-08
1.26658e-05
-2.25642e-08
1.26702e-05
-2.21075e-08
1.26743e-05
-2.16312e-08
1.26783e-05
-2.11428e-08
1.26819e-05
-2.06474e-08
1.26854e-05
-2.01475e-08
-1.96412e-08
1.26887e-05
1.12327e-05
-1.07222e-08
1.12375e-05
-1.92306e-08
1.12429e-05
-2.41146e-08
1.12485e-05
-2.68524e-08
1.12542e-05
-2.83482e-08
1.12597e-05
-2.90172e-08
1.1265e-05
-2.91416e-08
1.12701e-05
-2.89256e-08
1.12749e-05
-2.85002e-08
1.12795e-05
-2.79462e-08
1.12838e-05
-2.73147e-08
1.12879e-05
-2.66384e-08
1.12917e-05
-2.59382e-08
1.12953e-05
-2.52274e-08
1.12987e-05
-2.45153e-08
1.13019e-05
-2.38083e-08
1.13048e-05
-2.31109e-08
-2.2424e-08
1.13076e-05
1.00083e-05
-1.44052e-08
1.00137e-05
-2.46248e-08
1.00193e-05
-2.97505e-08
1.00249e-05
-3.24034e-08
1.00302e-05
-3.37141e-08
1.00354e-05
-3.41216e-08
1.00402e-05
-3.39539e-08
1.00447e-05
-3.34453e-08
1.00489e-05
-3.27366e-08
1.00529e-05
-3.19116e-08
1.00566e-05
-3.10226e-08
1.00601e-05
-3.01023e-08
1.00633e-05
-2.91712e-08
1.00663e-05
-2.82423e-08
1.00691e-05
-2.73243e-08
1.00717e-05
-2.64242e-08
1.00742e-05
-2.55478e-08
-2.47e-08
1.00765e-05
8.91787e-06
-1.91785e-08
8.92395e-06
-3.07008e-08
8.92968e-06
-3.54774e-08
8.935e-06
-3.77247e-08
8.93994e-06
-3.86534e-08
8.94449e-06
-3.86674e-08
8.94866e-06
-3.81284e-08
8.95251e-06
-3.72859e-08
8.95605e-06
-3.62779e-08
8.95932e-06
-3.51826e-08
8.96234e-06
-3.40476e-08
8.96515e-06
-3.29021e-08
8.96774e-06
-3.1763e-08
8.97014e-06
-3.06404e-08
8.97236e-06
-2.9541e-08
8.9744e-06
-2.84703e-08
8.97629e-06
-2.74353e-08
-2.64457e-08
8.97804e-06
7.94687e-06
-2.53839e-08
7.95351e-06
-3.73371e-08
7.95904e-06
-4.10096e-08
7.96386e-06
-4.25354e-08
7.96812e-06
-4.29154e-08
7.9719e-06
-4.24421e-08
7.97526e-06
-4.14913e-08
7.97828e-06
-4.03087e-08
7.98102e-06
-3.90153e-08
7.98351e-06
-3.76749e-08
7.98579e-06
-3.63253e-08
7.98788e-06
-3.49885e-08
7.98979e-06
-3.36762e-08
7.99155e-06
-3.23937e-08
7.99315e-06
-3.11435e-08
7.99461e-06
-2.99279e-08
7.99593e-06
-2.87534e-08
-2.76352e-08
7.99712e-06
7.08224e-06
-3.329e-08
7.08905e-06
-4.41477e-08
7.09392e-06
-4.58766e-08
7.09783e-06
-4.64432e-08
7.1011e-06
-4.61898e-08
7.10387e-06
-4.5209e-08
7.10625e-06
-4.38642e-08
7.10832e-06
-4.23782e-08
7.11015e-06
-4.08427e-08
7.11177e-06
-3.93009e-08
7.11323e-06
-3.77786e-08
7.11453e-06
-3.62902e-08
7.11569e-06
-3.48419e-08
7.11673e-06
-3.34344e-08
7.11766e-06
-3.2065e-08
7.11846e-06
-3.07299e-08
7.11914e-06
-2.94307e-08
-2.81811e-08
7.11968e-06
6.31218e-06
-4.29603e-08
6.31835e-06
-5.03125e-08
6.32189e-06
-4.94152e-08
6.32443e-06
-4.89846e-08
6.32638e-06
-4.81285e-08
6.32786e-06
-4.66857e-08
6.32899e-06
-4.49981e-08
6.32987e-06
-4.32577e-08
6.33056e-06
-4.15251e-08
6.33108e-06
-3.98244e-08
6.33147e-06
-3.81707e-08
6.33175e-06
-3.65712e-08
6.33193e-06
-3.5027e-08
6.33203e-06
-3.35341e-08
6.33205e-06
-3.20838e-08
6.33199e-06
-3.0663e-08
6.33181e-06
-2.92585e-08
-2.78586e-08
6.33149e-06
5.62587e-06
-5.39254e-08
5.62971e-06
-5.41551e-08
5.63089e-06
-5.05932e-08
5.63124e-06
-4.93361e-08
5.63103e-06
-4.79084e-08
5.63039e-06
-4.60431e-08
5.62946e-06
-4.40698e-08
5.62834e-06
-4.21345e-08
5.62708e-06
-4.02632e-08
5.62571e-06
-3.84607e-08
5.62427e-06
-3.6731e-08
5.62277e-06
-3.50746e-08
5.62123e-06
-3.34878e-08
5.61966e-06
-3.19633e-08
5.61806e-06
-3.0488e-08
5.61644e-06
-2.90375e-08
5.61475e-06
-2.75709e-08
-2.5966e-08
5.61286e-06
5.01054e-06
-6.21571e-08
5.00699e-06
-5.06009e-08
5.00196e-06
-4.55658e-08
4.99623e-06
-4.36038e-08
4.98998e-06
-4.16468e-08
4.98345e-06
-3.95154e-08
4.97682e-06
-3.74324e-08
4.97015e-06
-3.54667e-08
4.9635e-06
-3.3613e-08
4.9569e-06
-3.18611e-08
4.95037e-06
-3.02044e-08
4.94393e-06
-2.86371e-08
4.9376e-06
-2.71528e-08
4.93138e-06
-2.57433e-08
4.92528e-06
-2.43972e-08
4.91934e-06
-2.30892e-08
4.91353e-06
-2.17608e-08
-1.99711e-08
4.90753e-06
4.39439e-06
4.34379e-06
4.29823e-06
4.25463e-06
4.21299e-06
4.17347e-06
4.13604e-06
4.10057e-06
4.06696e-06
4.0351e-06
4.00489e-06
3.97625e-06
3.9491e-06
3.92336e-06
3.89896e-06
3.87587e-06
3.85411e-06
3.83414e-06
1.31413e-08
-1.31413e-08
2.94225e-08
-1.62573e-08
4.45118e-08
-1.50741e-08
5.64583e-08
-1.1935e-08
6.43915e-08
-7.92438e-09
6.7968e-08
-3.56702e-09
6.70678e-08
9.08033e-10
6.17791e-08
5.29632e-09
5.23554e-08
9.43099e-09
3.91071e-08
1.32547e-08
2.22853e-08
1.68279e-08
2.13939e-09
2.01507e-08
-2.10537e-08
2.31964e-08
-4.68566e-08
2.58046e-08
-7.48648e-08
2.8008e-08
-1.04742e-07
2.98751e-08
-1.36188e-07
3.14441e-08
-1.68934e-07
3.27439e-08
-2.02739e-07
3.38023e-08
-2.37387e-07
3.46458e-08
-2.72689e-07
3.52998e-08
-3.08479e-07
3.57881e-08
-3.44613e-07
3.61332e-08
-3.80972e-07
3.63578e-08
-4.17458e-07
3.64875e-08
-4.54008e-07
3.65509e-08
-4.9058e-07
3.65735e-08
-5.27126e-07
3.65481e-08
-5.63594e-07
3.64707e-08
-6.00148e-07
3.6556e-08
-6.36811e-07
3.66651e-08
-6.73438e-07
3.66275e-08
-7.10014e-07
3.65768e-08
-7.46547e-07
3.65324e-08
-7.83042e-07
3.64937e-08
-8.19503e-07
3.64596e-08
-8.55933e-07
3.64302e-08
-8.92339e-07
3.64067e-08
-9.28726e-07
3.639e-08
-9.65103e-07
3.63815e-08
-1.00148e-06
3.63825e-08
-1.03787e-06
3.63941e-08
-1.07427e-06
3.64173e-08
-1.11072e-06
3.6453e-08
-1.14721e-06
3.6502e-08
-1.18377e-06
3.65648e-08
-1.22041e-06
3.66417e-08
-1.25715e-06
3.6733e-08
-1.29399e-06
3.68394e-08
-1.33096e-06
3.69617e-08
-1.36806e-06
3.71009e-08
-1.40533e-06
3.72581e-08
-1.44276e-06
3.74342e-08
-1.48039e-06
3.76299e-08
-1.51823e-06
3.78455e-08
-1.55632e-06
3.80816e-08
-1.59466e-06
3.8339e-08
-1.63328e-06
3.86188e-08
-1.6722e-06
3.89223e-08
-1.71146e-06
3.9251e-08
-1.75107e-06
3.96063e-08
-1.79107e-06
3.99894e-08
-1.83147e-06
4.04016e-08
-1.87232e-06
4.08439e-08
-1.91363e-06
4.13172e-08
-1.95545e-06
4.1822e-08
-1.99781e-06
4.23589e-08
-2.04073e-06
4.29283e-08
-2.08426e-06
4.35311e-08
-2.12843e-06
4.41684e-08
-2.17328e-06
4.4842e-08
-2.21884e-06
4.5554e-08
-2.26515e-06
4.63063e-08
-2.31226e-06
4.70998e-08
-2.3602e-06
4.79352e-08
-2.40901e-06
4.88125e-08
-2.45875e-06
4.9732e-08
-2.50944e-06
5.06935e-08
-2.56113e-06
5.16964e-08
-2.61387e-06
5.27395e-08
-2.66769e-06
5.38208e-08
-2.72262e-06
5.49377e-08
-2.77871e-06
5.60868e-08
-2.83597e-06
5.72633e-08
-2.89443e-06
5.84609e-08
-2.95411e-06
5.96712e-08
-3.01499e-06
6.08841e-08
-3.07708e-06
6.20874e-08
-3.14035e-06
6.32657e-08
-3.20475e-06
6.44002e-08
-3.27022e-06
6.54678e-08
-3.33667e-06
6.64412e-08
-3.40396e-06
6.72884e-08
-3.47193e-06
6.79724e-08
-3.54038e-06
6.84499e-08
-3.60905e-06
6.86713e-08
-3.67763e-06
6.85801e-08
-3.74574e-06
6.81125e-08
-3.81294e-06
6.71953e-08
-3.87868e-06
6.57451e-08
-3.94236e-06
6.36689e-08
-4.00322e-06
6.08671e-08
-4.06046e-06
5.72336e-08
-4.11311e-06
5.26515e-08
-4.1601e-06
4.69872e-08
-4.20019e-06
4.00933e-08
-4.23201e-06
3.1822e-08
-4.25405e-06
2.20478e-08
-4.26468e-06
1.06357e-08
-4.26215e-06
-2.5187e-09
-4.24477e-06
-1.73737e-08
-4.21089e-06
-3.38717e-08
-4.15888e-06
-5.19965e-08
-4.08723e-06
-7.16457e-08
-3.99459e-06
-9.26412e-08
-3.87986e-06
-1.14726e-07
-3.7423e-06
-1.37563e-07
-3.58157e-06
-1.60736e-07
-3.39782e-06
-1.83755e-07
-3.19176e-06
-2.06065e-07
-2.96471e-06
-2.27065e-07
-2.71859e-06
-2.46125e-07
-2.45595e-06
-2.62635e-07
-2.17991e-06
-2.7604e-07
-1.89402e-06
-2.85887e-07
-1.60213e-06
-2.91892e-07
-1.30814e-06
-2.93987e-07
-1.01579e-06
-2.92342e-07
-7.28523e-07
-2.87269e-07
-4.49179e-07
-2.79344e-07
-1.77754e-07
-2.7142e-07
8.37508e-08
-2.61503e-07
3.30517e-07
-2.4676e-07
5.60968e-07
-2.30452e-07
7.74745e-07
-2.13776e-07
9.72128e-07
-1.9739e-07
1.15371e-06
-1.81589e-07
1.32024e-06
-1.6655e-07
1.4726e-06
-1.52375e-07
1.61168e-06
-1.39099e-07
1.73841e-06
-1.26736e-07
1.85372e-06
-1.15291e-07
1.95849e-06
-1.04745e-07
2.05358e-06
-9.50664e-08
2.13981e-06
-8.62132e-08
2.21796e-06
-7.81344e-08
2.28874e-06
-7.07765e-08
2.35282e-06
-6.40862e-08
2.41082e-06
-5.8012e-08
2.46332e-06
-5.25075e-08
2.51084e-06
-4.75296e-08
2.55387e-06
-4.30337e-08
2.59284e-06
-3.89747e-08
2.62816e-06
-3.53115e-08
2.66017e-06
-3.20078e-08
2.6892e-06
-2.90298e-08
2.71554e-06
-2.63452e-08
2.73947e-06
-2.39247e-08
2.76121e-06
-2.17409e-08
2.78098e-06
-1.9769e-08
2.79896e-06
-1.79876e-08
2.81534e-06
-1.63741e-08
2.83024e-06
-1.49042e-08
2.8438e-06
-1.35571e-08
2.85611e-06
-1.23104e-08
2.86725e-06
-1.11408e-08
2.87728e-06
-1.00248e-08
2.88621e-06
-8.93275e-09
2.89404e-06
-7.83299e-09
2.90072e-06
-6.68286e-09
2.90613e-06
-5.40905e-09
2.91005e-06
-3.91972e-09
2.91217e-06
-2.11199e-09
2.91201e-06
1.57855e-10
2.90873e-06
3.27897e-09
2.90074e-06
7.99484e-09
2.88508e-06
1.56692e-08
2.85509e-06
2.99947e-08
2.79454e-06
6.05635e-08
1.48634e-07
2.6459e-06
1.28004e-08
-2.5947e-08
2.19148e-08
-2.53805e-08
2.67773e-08
-1.99415e-08
2.77481e-08
-1.29082e-08
2.49575e-08
-5.13583e-09
1.84626e-08
2.92744e-09
8.47538e-09
1.08958e-08
-4.72494e-09
1.84977e-08
-2.0877e-08
2.55849e-08
-3.96874e-08
3.20668e-08
-6.08424e-08
3.79844e-08
-8.404e-08
4.33494e-08
-1.08974e-07
4.81306e-08
-1.35479e-07
5.2308e-08
-1.63394e-07
5.59202e-08
-1.92535e-07
5.90122e-08
-2.22727e-07
6.16307e-08
-2.5381e-07
6.38214e-08
-2.85643e-07
6.56295e-08
-3.181e-07
6.70991e-08
-3.51075e-07
6.82732e-08
-3.84478e-07
6.91925e-08
-4.18236e-07
6.98958e-08
-4.5229e-07
7.04194e-08
-4.86588e-07
7.0798e-08
-5.21085e-07
7.10632e-08
-5.55736e-07
7.12415e-08
-5.90517e-07
7.13482e-08
-6.25431e-07
7.14038e-08
-6.60311e-07
7.14538e-08
-6.95127e-07
7.1495e-08
-7.29982e-07
7.14924e-08
-7.64865e-07
7.14643e-08
-7.99756e-07
7.14244e-08
-8.34646e-07
7.13804e-08
-8.6953e-07
7.13377e-08
-9.04407e-07
7.13003e-08
-9.39278e-07
7.12718e-08
-9.74147e-07
7.12551e-08
-1.00902e-06
7.12527e-08
-1.0439e-06
7.1267e-08
-1.07881e-06
7.13e-08
-1.11374e-06
7.13535e-08
-1.14871e-06
7.14291e-08
-1.18373e-06
7.15283e-08
-1.21882e-06
7.16525e-08
-1.25398e-06
7.18029e-08
-1.28924e-06
7.19813e-08
-1.3246e-06
7.21892e-08
-1.36007e-06
7.24284e-08
-1.39568e-06
7.2701e-08
-1.43144e-06
7.30089e-08
-1.46736e-06
7.33536e-08
-1.50347e-06
7.37366e-08
-1.53979e-06
7.41594e-08
-1.57633e-06
7.46234e-08
-1.61312e-06
7.51303e-08
-1.65019e-06
7.56822e-08
-1.68755e-06
7.62816e-08
-1.72523e-06
7.69311e-08
-1.76325e-06
7.76335e-08
-1.80165e-06
7.83913e-08
-1.84045e-06
7.92068e-08
-1.87969e-06
8.00819e-08
-1.91938e-06
8.10184e-08
-1.95958e-06
8.20181e-08
-2.0003e-06
8.30823e-08
-2.0416e-06
8.42129e-08
-2.08349e-06
8.54122e-08
-2.12601e-06
8.66827e-08
-2.16921e-06
8.80271e-08
-2.21311e-06
8.94478e-08
-2.25775e-06
9.09462e-08
-2.30318e-06
9.25224e-08
-2.34942e-06
9.4176e-08
-2.39651e-06
9.59059e-08
-2.44448e-06
9.77105e-08
-2.49337e-06
9.95874e-08
-2.5432e-06
1.01533e-07
-2.59401e-06
1.03543e-07
-2.6458e-06
1.05613e-07
-2.6986e-06
1.07733e-07
-2.75241e-06
1.09894e-07
-2.80724e-06
1.12085e-07
-2.86307e-06
1.14289e-07
-2.91989e-06
1.16488e-07
-2.97766e-06
1.18658e-07
-3.03635e-06
1.20772e-07
-3.09588e-06
1.22797e-07
-3.15617e-06
1.24694e-07
-3.21712e-06
1.26415e-07
-3.27858e-06
1.27908e-07
-3.3404e-06
1.2911e-07
-3.40238e-06
1.29949e-07
-3.46427e-06
1.30341e-07
-3.52579e-06
1.30193e-07
-3.5866e-06
1.29396e-07
-3.64631e-06
1.27827e-07
-3.70446e-06
1.25347e-07
-3.76051e-06
1.21801e-07
-3.81385e-06
1.17016e-07
-3.86379e-06
1.10804e-07
-3.90951e-06
1.02962e-07
-3.95013e-06
9.32695e-08
-3.98463e-06
8.14842e-08
-4.01189e-06
6.73477e-08
-4.03067e-06
5.05973e-08
-4.03962e-06
3.09816e-08
-4.03722e-06
8.2226e-09
-4.02199e-06
-1.77692e-08
-3.99242e-06
-4.69564e-08
-3.94694e-06
-7.93688e-08
-3.88401e-06
-1.14936e-07
-3.8022e-06
-1.53462e-07
-3.70023e-06
-1.94615e-07
-3.57705e-06
-2.37909e-07
-3.43191e-06
-2.82699e-07
-3.26446e-06
-3.28177e-07
-3.07482e-06
-3.73379e-07
-2.86367e-06
-4.172e-07
-2.6323e-06
-4.58423e-07
-2.38264e-06
-4.95775e-07
-2.11727e-06
-5.28009e-07
-1.83933e-06
-5.53987e-07
-1.55241e-06
-5.72812e-07
-1.26036e-06
-5.83954e-07
-9.66951e-07
-5.87407e-07
-6.75502e-07
-5.83805e-07
-3.88427e-07
-5.74355e-07
-1.07181e-07
-5.606e-07
1.62658e-07
-5.41264e-07
4.15696e-07
-5.14546e-07
6.52103e-07
-4.83165e-07
8.72086e-07
-4.50433e-07
1.07598e-06
-4.1767e-07
1.26428e-06
-3.85676e-07
1.43763e-06
-3.54927e-07
1.59681e-06
-3.25712e-07
1.74265e-06
-2.98198e-07
1.87603e-06
-2.72464e-07
1.99782e-06
-2.48531e-07
2.10888e-06
-2.26377e-07
2.21007e-06
-2.05956e-07
2.30218e-06
-1.87205e-07
2.386e-06
-1.70044e-07
2.46224e-06
-1.54384e-07
2.5316e-06
-1.40131e-07
2.59471e-06
-1.27185e-07
2.65215e-06
-1.15445e-07
2.70448e-06
-1.04817e-07
2.75218e-06
-9.5211e-08
2.7957e-06
-8.6538e-08
2.83545e-06
-7.87145e-08
2.87181e-06
-7.16628e-08
2.90511e-06
-6.53095e-08
2.93566e-06
-5.95848e-08
2.96374e-06
-5.44257e-08
2.98959e-06
-4.97777e-08
3.01343e-06
-4.55896e-08
3.03547e-06
-4.181e-08
3.05586e-06
-3.83911e-08
3.07478e-06
-3.52918e-08
3.09234e-06
-3.24705e-08
3.10867e-06
-2.98834e-08
3.12385e-06
-2.74879e-08
3.13795e-06
-2.52424e-08
3.15103e-06
-2.31004e-08
3.1631e-06
-2.10036e-08
3.17414e-06
-1.88796e-08
3.1841e-06
-1.66435e-08
3.19287e-06
-1.41772e-08
3.20026e-06
-1.13067e-08
3.20594e-06
-7.79021e-09
3.20937e-06
-3.26555e-09
3.20973e-06
2.92659e-09
3.20567e-06
1.20577e-08
3.19482e-06
2.65342e-08
3.17303e-06
5.17858e-08
3.1334e-06
1.002e-07
2.04998e-07
3.07704e-06
4.88928e-09
-3.08181e-08
5.00117e-09
-2.54849e-08
1.11989e-09
-1.60549e-08
-6.23281e-09
-5.55154e-09
-1.65615e-08
5.19637e-09
-2.93641e-08
1.57335e-08
-4.42633e-08
2.57978e-08
-6.10424e-08
3.52793e-08
-7.95517e-08
4.40961e-08
-9.96847e-08
5.2201e-08
-1.21285e-07
5.95851e-08
-1.44185e-07
6.62496e-08
-1.68253e-07
7.21975e-08
-1.93392e-07
7.74461e-08
-2.19505e-07
8.20309e-08
-2.46491e-07
8.59969e-08
-2.74256e-07
8.93945e-08
-3.02713e-07
9.22765e-08
-3.3178e-07
9.4696e-08
-3.61388e-07
9.67057e-08
-3.91472e-07
9.83561e-08
-4.21975e-07
9.96955e-08
-4.52847e-07
1.00769e-07
-4.84045e-07
1.01617e-07
-5.15525e-07
1.02279e-07
-5.47248e-07
1.02789e-07
-5.79178e-07
1.03174e-07
-6.11285e-07
1.03458e-07
-6.43539e-07
1.03661e-07
-6.75885e-07
1.03802e-07
-7.08286e-07
1.03897e-07
-7.40745e-07
1.03952e-07
-7.73257e-07
1.03977e-07
-8.05815e-07
1.03982e-07
-8.38409e-07
1.03975e-07
-8.71036e-07
1.03965e-07
-9.03691e-07
1.03956e-07
-9.36374e-07
1.03956e-07
-9.69083e-07
1.03967e-07
-1.00182e-06
1.03994e-07
-1.03459e-06
1.04041e-07
-1.0674e-06
1.04112e-07
-1.10025e-06
1.04208e-07
-1.13315e-06
1.04333e-07
-1.16611e-06
1.04489e-07
-1.19914e-06
1.04679e-07
-1.23224e-06
1.04905e-07
-1.26543e-06
1.0517e-07
-1.29872e-06
1.05476e-07
-1.33212e-06
1.05826e-07
-1.36565e-06
1.06223e-07
-1.39931e-06
1.06668e-07
-1.43312e-06
1.07165e-07
-1.4671e-06
1.07717e-07
-1.50127e-06
1.08325e-07
-1.53564e-06
1.08992e-07
-1.57023e-06
1.09722e-07
-1.60507e-06
1.10518e-07
-1.64018e-06
1.11383e-07
-1.67557e-06
1.12323e-07
-1.71127e-06
1.13339e-07
-1.74732e-06
1.14437e-07
-1.78373e-06
1.1562e-07
-1.82054e-06
1.16889e-07
-1.85777e-06
1.1825e-07
-1.89545e-06
1.19704e-07
-1.93362e-06
1.21254e-07
-1.97232e-06
1.22904e-07
-2.01156e-06
1.24656e-07
-2.0514e-06
1.26514e-07
-2.09186e-06
1.28482e-07
-2.13297e-06
1.30561e-07
-2.17478e-06
1.32753e-07
-2.21732e-06
1.35056e-07
-2.26061e-06
1.37471e-07
-2.3047e-06
1.39995e-07
-2.34961e-06
1.42624e-07
-2.39538e-06
1.45353e-07
-2.44202e-06
1.48176e-07
-2.48956e-06
1.51083e-07
-2.53802e-06
1.54066e-07
-2.58739e-06
1.57108e-07
-2.63769e-06
1.60194e-07
-2.68891e-06
1.63302e-07
-2.74102e-06
1.66407e-07
-2.79401e-06
1.69479e-07
-2.84784e-06
1.72481e-07
-2.90244e-06
1.7537e-07
-2.95774e-06
1.78095e-07
-3.01364e-06
1.80597e-07
-3.07004e-06
1.82808e-07
-3.12677e-06
1.84645e-07
-3.18368e-06
1.86019e-07
-3.24056e-06
1.86822e-07
-3.29715e-06
1.86933e-07
-3.35317e-06
1.86214e-07
-3.40828e-06
1.84509e-07
-3.46209e-06
1.81639e-07
-3.51415e-06
1.77405e-07
-3.56394e-06
1.71585e-07
-3.61085e-06
1.63933e-07
-3.65423e-06
1.54179e-07
-3.6933e-06
1.42029e-07
-3.72719e-06
1.27167e-07
-3.75496e-06
1.0925e-07
-3.77552e-06
8.7918e-08
-3.78772e-06
6.28044e-08
-3.79029e-06
3.35543e-08
-3.7819e-06
-1.70102e-10
-3.76112e-06
-3.85424e-08
-3.72646e-06
-8.16072e-08
-3.67643e-06
-1.29398e-07
-3.60955e-06
-1.8182e-07
-3.5244e-06
-2.38609e-07
-3.41971e-06
-2.99308e-07
-3.29438e-06
-3.63234e-07
-3.14762e-06
-4.29462e-07
-2.97898e-06
-4.96818e-07
-2.78849e-06
-5.63879e-07
-2.5767e-06
-6.28988e-07
-2.34483e-06
-6.90294e-07
-2.09476e-06
-7.45842e-07
-1.82906e-06
-7.93703e-07
-1.55094e-06
-8.32109e-07
-1.26409e-06
-8.59665e-07
-9.72426e-07
-8.75617e-07
-6.79728e-07
-8.80108e-07
-3.89323e-07
-8.74211e-07
-1.04459e-07
-8.59219e-07
1.68966e-07
-8.34026e-07
4.26179e-07
-7.98477e-07
6.66979e-07
-7.55347e-07
8.91835e-07
-7.08022e-07
1.10079e-06
-6.59391e-07
1.29416e-06
-6.11043e-07
1.47248e-06
-5.63997e-07
1.63644e-06
-5.18893e-07
1.78684e-06
-4.76121e-07
1.92454e-06
-4.35897e-07
2.05041e-06
-3.98325e-07
2.16531e-06
-3.63423e-07
2.27009e-06
-3.31153e-07
2.36558e-06
-3.01439e-07
2.45255e-06
-2.74178e-07
2.53175e-06
-2.49247e-07
2.60388e-06
-2.26514e-07
2.66958e-06
-2.05835e-07
2.72946e-06
-1.87066e-07
2.78407e-06
-1.7006e-07
2.83393e-06
-1.54678e-07
2.8795e-06
-1.40782e-07
2.9212e-06
-1.28241e-07
2.95942e-06
-1.16934e-07
2.99451e-06
-1.06747e-07
3.02677e-06
-9.75735e-08
3.0565e-06
-8.9314e-08
3.08395e-06
-8.18753e-08
3.10935e-06
-7.5174e-08
3.13289e-06
-6.9135e-08
3.15477e-06
-6.36861e-08
3.17514e-06
-5.87584e-08
3.19414e-06
-5.42892e-08
3.21189e-06
-5.0218e-08
3.22849e-06
-4.6483e-08
3.24402e-06
-4.30229e-08
3.25856e-06
-3.97749e-08
3.27213e-06
-3.66698e-08
3.28475e-06
-3.36251e-08
3.29641e-06
-3.05368e-08
3.30704e-06
-2.72781e-08
3.31655e-06
-2.36835e-08
3.32475e-06
-1.95106e-08
3.33137e-06
-1.44071e-08
3.33595e-06
-7.84033e-09
3.33781e-06
1.06098e-09
3.33597e-06
1.38979e-08
3.32895e-06
3.35636e-08
3.31494e-06
6.58019e-08
3.29311e-06
1.22027e-07
2.25325e-07
3.27278e-06
-4.05263e-09
-2.67686e-08
-1.2346e-08
-1.72008e-08
-2.3512e-08
-4.89161e-09
-3.67499e-08
7.68456e-09
-5.15031e-08
1.99483e-08
-6.74771e-08
3.17065e-08
-8.45651e-08
4.28849e-08
-1.02697e-07
5.34103e-08
-1.21821e-07
6.32194e-08
-1.41892e-07
7.22703e-08
-1.62851e-07
8.0543e-08
-1.84638e-07
8.80351e-08
-2.072e-07
9.47582e-08
-2.30493e-07
1.00737e-07
-2.54471e-07
1.06008e-07
-2.79093e-07
1.10616e-07
-3.04313e-07
1.14613e-07
-3.3009e-07
1.18052e-07
-3.56383e-07
1.20988e-07
-3.83153e-07
1.23476e-07
-4.10363e-07
1.25566e-07
-4.37976e-07
1.2731e-07
-4.65957e-07
1.28752e-07
-4.94271e-07
1.29934e-07
-5.22883e-07
1.30895e-07
-5.51759e-07
1.31668e-07
-5.80865e-07
1.32284e-07
-6.10171e-07
1.32767e-07
-6.39648e-07
1.33142e-07
-6.6927e-07
1.33427e-07
-6.99013e-07
1.33641e-07
-7.28859e-07
1.33799e-07
-7.58798e-07
1.33915e-07
-7.88816e-07
1.33999e-07
-8.18905e-07
1.34062e-07
-8.49056e-07
1.34114e-07
-8.79262e-07
1.34161e-07
-9.09518e-07
1.34212e-07
-9.39822e-07
1.34271e-07
-9.70172e-07
1.34345e-07
-1.00057e-06
1.34438e-07
-1.03101e-06
1.34555e-07
-1.0615e-06
1.347e-07
-1.09204e-06
1.34877e-07
-1.12264e-06
1.3509e-07
-1.1533e-06
1.35341e-07
-1.18403e-06
1.35636e-07
-1.21484e-06
1.35976e-07
-1.24573e-06
1.36366e-07
-1.27672e-06
1.3681e-07
-1.30781e-06
1.3731e-07
-1.33901e-06
1.37871e-07
-1.37034e-06
1.38495e-07
-1.40181e-06
1.39186e-07
-1.43344e-06
1.39949e-07
-1.46524e-06
1.40785e-07
-1.49722e-06
1.41702e-07
-1.5294e-06
1.42702e-07
-1.56181e-06
1.43792e-07
-1.59446e-06
1.44976e-07
-1.62738e-06
1.46259e-07
-1.66059e-06
1.47646e-07
-1.69411e-06
1.49142e-07
-1.72797e-06
1.50751e-07
-1.7622e-06
1.52478e-07
-1.79682e-06
1.54326e-07
-1.83187e-06
1.56302e-07
-1.86738e-06
1.58408e-07
-1.90338e-06
1.60651e-07
-1.9399e-06
1.63033e-07
-1.97697e-06
1.65558e-07
-2.01464e-06
1.68229e-07
-2.05294e-06
1.71046e-07
-2.09189e-06
1.7401e-07
-2.13154e-06
1.77118e-07
-2.17191e-06
1.80368e-07
-2.21305e-06
1.83755e-07
-2.25497e-06
1.87271e-07
-2.2977e-06
1.90907e-07
-2.34127e-06
1.94651e-07
-2.38569e-06
1.98486e-07
-2.43098e-06
2.02393e-07
-2.47713e-06
2.06348e-07
-2.52415e-06
2.10321e-07
-2.57201e-06
2.14277e-07
-2.62071e-06
2.18174e-07
-2.67019e-06
2.21963e-07
-2.7204e-06
2.25584e-07
-2.77128e-06
2.28972e-07
-2.82273e-06
2.32045e-07
-2.87464e-06
2.34714e-07
-2.92687e-06
2.36873e-07
-2.97925e-06
2.384e-07
-3.03159e-06
2.39157e-07
-3.08364e-06
2.38986e-07
-3.13513e-06
2.37704e-07
-3.18573e-06
2.3511e-07
-3.23506e-06
2.30972e-07
-3.28269e-06
2.25036e-07
-3.32811e-06
2.17012e-07
-3.37077e-06
2.06586e-07
-3.41e-06
1.93408e-07
-3.44507e-06
1.771e-07
-3.47515e-06
1.57253e-07
-3.49933e-06
1.33428e-07
-3.51658e-06
1.05167e-07
-3.52579e-06
7.2006e-08
-3.52573e-06
3.34998e-08
-3.51514e-06
-1.07608e-08
-3.49264e-06
-6.10462e-08
-3.45676e-06
-1.17493e-07
-3.40601e-06
-1.80146e-07
-3.33893e-06
-2.48902e-07
-3.25408e-06
-3.23456e-07
-3.15013e-06