/*--------------------------------*- C++ -*----------------------------------*\
| =========                 |                                                 |
| \\      /  F ield         | OpenFOAM: The Open Source CFD Toolbox           |
|  \\    /   O peration     | Version:  1.4.2                                 |
|   \\  /    A nd           | Web:      http://www.openfoam.org               |
|    \\/     M anipulation  |                                                 |
\*---------------------------------------------------------------------------*/
FoamFile
{
    version     2.0;
    format      ascii;
    class       volVectorField;
    object      U;
    location    "500";
}
// * * * * * * * * * * * * * * * * * * * * * * * * * * * * * * * * * * * * * //

dimensions      [0 1 -1 0 0 0 0];

internalField   nonuniform List<vector> 
12225
(
(9.7763 0.0380815 0)
(9.58163 0.0388069 0)
(9.36733 0.0370266 0)
(9.16163 0.0361632 0)
(8.97073 0.0352188 0)
(8.79248 0.0340481 0)
(8.62569 0.0327799 0)
(8.47007 0.0314781 0)
(8.32528 0.0301567 0)
(8.19086 0.0288206 0)
(8.06634 0.0274735 0)
(7.9513 0.0261152 0)
(7.84535 0.0247385 0)
(7.74821 0.0233238 0)
(7.65976 0.0218243 0)
(7.58019 0.0201201 0)
(7.51122 0.0179507 0)
(7.44638 0.00485865 0)
(10.004 0.0585796 0)
(10.0077 0.055537 0)
(9.98302 0.0518755 0)
(9.951 0.0514472 0)
(9.91812 0.05117 0)
(9.88391 0.0505125 0)
(9.84838 0.0496803 0)
(9.81209 0.0487647 0)
(9.77553 0.0477651 0)
(9.73904 0.0466726 0)
(9.70292 0.0454802 0)
(9.66746 0.0441733 0)
(9.63297 0.0427192 0)
(9.59985 0.0410509 0)
(9.56858 0.0390247 0)
(9.53996 0.0363021 0)
(9.51552 0.0320435 0)
(9.49335 0.0224423 0)
(10.0174 0.0524368 0)
(10.037 0.0526887 0)
(10.0383 0.0512681 0)
(10.0337 0.0522186 0)
(10.0283 0.0528468 0)
(10.022 0.0528378 0)
(10.0146 0.0525247 0)
(10.0064 0.0520519 0)
(9.99783 0.0514371 0)
(9.98896 0.0506776 0)
(9.97993 0.0497653 0)
(9.97088 0.0486744 0)
(9.96197 0.0473496 0)
(9.95341 0.0456814 0)
(9.94546 0.0434519 0)
(9.93842 0.0402058 0)
(9.93258 0.034915 0)
(9.9246 0.025033 0)
(10.0158 0.0449664 0)
(10.0375 0.0501544 0)
(10.0459 0.050696 0)
(10.0488 0.0522144 0)
(10.0508 0.0531965 0)
(10.0519 0.0534999 0)
(10.0522 0.0534419 0)
(10.0519 0.05317 0)
(10.0513 0.0527137 0)
(10.0504 0.0520762 0)
(10.0495 0.0512477 0)
(10.0486 0.0501961 0)
(10.0479 0.0488533 0)
(10.0473 0.0470931 0)
(10.0471 0.0446873 0)
(10.0472 0.0412278 0)
(10.0474 0.036047 0)
(10.0456 0.0282293 0)
(10.0125 0.0370993 0)
(10.0331 0.0461843 0)
(10.0445 0.0486286 0)
(10.0508 0.0507564 0)
(10.0559 0.0520744 0)
(10.06 0.0526231 0)
(10.0634 0.0527318 0)
(10.0662 0.0525655 0)
(10.0687 0.0521704 0)
(10.071 0.0515569 0)
(10.0732 0.0507162 0)
(10.0753 0.0496142 0)
(10.0775 0.0481808 0)
(10.0798 0.0462932 0)
(10.0822 0.0437508 0)
(10.0846 0.0402481 0)
(10.0866 0.035417 0)
(10.087 0.0290335 0)
(10.0094 0.030256 0)
(10.0272 0.0414282 0)
(10.0399 0.0454998 0)
(10.0482 0.0483067 0)
(10.055 0.0500234 0)
(10.0609 0.0508546 0)
(10.066 0.0511478 0)
(10.0704 0.0510888 0)
(10.0745 0.0507478 0)
(10.0784 0.0501496 0)
(10.0821 0.0492918 0)
(10.0857 0.0481437 0)
(10.0892 0.0466411 0)
(10.0927 0.0446779 0)
(10.0962 0.0420979 0)
(10.0994 0.0387012 0)
(10.1021 0.0343256 0)
(10.1034 0.0290537 0)
(10.0067 0.0245045 0)
(10.0215 0.0364388 0)
(10.034 0.0416692 0)
(10.0433 0.0450496 0)
(10.0512 0.0471642 0)
(10.0582 0.0483009 0)
(10.0644 0.0488041 0)
(10.0699 0.0488753 0)
(10.0751 0.0486063 0)
(10.0799 0.0480367 0)
(10.0845 0.047174 0)
(10.0889 0.0459966 0)
(10.0932 0.044454 0)
(10.0973 0.0424655 0)
(10.1012 0.0399249 0)
(10.1048 0.0367213 0)
(10.1078 0.0328175 0)
(10.1097 0.028403 0)
(10.005 0.0203892 0)
(10.0173 0.0322719 0)
(10.029 0.0381087 0)
(10.0385 0.0418491 0)
(10.0468 0.0442315 0)
(10.0543 0.0455889 0)
(10.061 0.0462587 0)
(10.0672 0.0464453 0)
(10.0729 0.0462498 0)
(10.0783 0.0457207 0)
(10.0834 0.0448739 0)
(10.0882 0.0436978 0)
(10.0929 0.0421567 0)
(10.0973 0.0401948 0)
(10.1015 0.0377457 0)
(10.1052 0.0347568 0)
(10.1083 0.0312515 0)
(10.1106 0.0274341 0)
(10.0038 0.0172397 0)
(10.0141 0.0286965 0)
(10.0248 0.0348318 0)
(10.0341 0.0388043 0)
(10.0425 0.0413731 0)
(10.0502 0.0428943 0)
(10.0572 0.0436938 0)
(10.0637 0.0439737 0)
(10.0698 0.0438411 0)
(10.0755 0.0433521 0)
(10.081 0.0425297 0)
(10.0861 0.0413713 0)
(10.091 0.0398548 0)
(10.0957 0.0379453 0)
(10.0999 0.0356073 0)
(10.1038 0.0328274 0)
(10.107 0.0296605 0)
(10.1095 0.0263026 0)
(10.0029 0.01439 0)
(10.0112 0.0250631 0)
(10.0208 0.0312624 0)
(10.0296 0.0353466 0)
(10.0377 0.038038 0)
(10.0454 0.039687 0)
(10.0526 0.0405966 0)
(10.0593 0.0409616 0)
(10.0656 0.0408918 0)
(10.0715 0.0404483 0)
(10.0772 0.0396613 0)
(10.0825 0.0385381 0)
(10.0876 0.0370711 0)
(10.0923 0.035246 0)
(10.0967 0.0330539 0)
(10.1006 0.0305106 0)
(10.1039 0.0276862 0)
(10.1066 0.0247588 0)
(10.0021 0.0118382 0)
(10.0088 0.0214564 0)
(10.0171 0.027484 0)
(10.0252 0.0315347 0)
(10.0329 0.0342575 0)
(10.0404 0.0359758 0)
(10.0474 0.036958 0)
(10.0541 0.0373861 0)
(10.0605 0.0373687 0)
(10.0665 0.0369705 0)
(10.0722 0.0362275 0)
(10.0776 0.0351571 0)
(10.0827 0.0337655 0)
(10.0875 0.0320563 0)
(10.0919 0.0300418 0)
(10.0958 0.027756 0)
(10.0992 0.0252728 0)
(10.1021 0.0227455 0)
(10.0015 0.00958029 0)
(10.0068 0.0179528 0)
(10.0138 0.0235775 0)
(10.0211 0.0274431 0)
(10.0283 0.0300893 0)
(10.0353 0.0317997 0)
(10.0421 0.0328016 0)
(10.0486 0.0332582 0)
(10.0548 0.0332735 0)
(10.0608 0.0329128 0)
(10.0665 0.0322175 0)
(10.0718 0.0312132 0)
(10.0769 0.0299181 0)
(10.0816 0.0283504 0)
(10.0859 0.0265361 0)
(10.0898 0.0245185 0)
(10.0932 0.0223665 0)
(10.0962 0.0202067 0)
(10.0011 0.00759309 0)
(10.0052 0.0146068 0)
(10.0111 0.019616 0)
(10.0175 0.0231443 0)
(10.024 0.0255977 0)
(10.0306 0.0272115 0)
(10.0369 0.0281696 0)
(10.0431 0.0286114 0)
(10.0491 0.0286321 0)
(10.0549 0.0282957 0)
(10.0603 0.0276462 0)
(10.0655 0.026716 0)
(10.0704 0.0255319 0)
(10.0749 0.0241213 0)
(10.0791 0.022518 0)
(10.0829 0.0207665 0)
(10.0864 0.0189268 0)
(10.0895 0.0170994 0)
(10.0009 0.00583302 0)
(10.0041 0.0114407 0)
(10.0089 0.0156543 0)
(10.0145 0.0186971 0)
(10.0203 0.0208399 0)
(10.0263 0.0222631 0)
(10.0322 0.023108 0)
(10.038 0.0234868 0)
(10.0436 0.0234818 0)
(10.0491 0.0231526 0)
(10.0543 0.0225433 0)
(10.0592 0.0216894 0)
(10.0638 0.0206226 0)
(10.0682 0.0193746 0)
(10.0722 0.0179807 0)
(10.0759 0.0164821 0)
(10.0792 0.014928 0)
(10.0823 0.0133959 0)
(10.0007 0.00424551 0)
(10.0032 0.00844085 0)
(10.0072 0.0117181 0)
(10.0121 0.0141371 0)
(10.0173 0.0158535 0)
(10.0227 0.0169913 0)
(10.0281 0.017651 0)
(10.0335 0.0179159 0)
(10.0387 0.0178522 0)
(10.0438 0.0175109 0)
(10.0487 0.0169328 0)
(10.0533 0.0161525 0)
(10.0577 0.0152019 0)
(10.0618 0.0141125 0)
(10.0656 0.0129167 0)
(10.0691 0.0116497 0)
(10.0724 0.0103498 0)
(10.0754 0.00907577 0)
(10.0005 0.00277044 0)
(10.0026 0.0055572 0)
(10.006 0.00779071 0)
(10.0102 0.00946105 0)
(10.0149 0.0106405 0)
(10.0198 0.0114004 0)
(10.0247 0.0118026 0)
(10.0297 0.0119018 0)
(10.0346 0.0117444 0)
(10.0393 0.0113692 0)
(10.0439 0.0108094 0)
(10.0482 0.0100946 0)
(10.0523 0.00925261 0)
(10.0562 0.00831063 0)
(10.0598 0.0072956 0)
(10.0632 0.00623497 0)
(10.0663 0.00515751 0)
(10.0693 0.00410684 0)
(10.0005 0.00134124 0)
(10.0023 0.00270238 0)
(10.0053 0.00380213 0)
(10.009 0.00461394 0)
(10.0132 0.0051549 0)
(10.0177 0.00545032 0)
(10.0223 0.00552612 0)
(10.0269 0.005408 0)
(10.0315 0.00512057 0)
(10.0359 0.00468663 0)
(10.0402 0.00412777 0)
(10.0443 0.0034646 0)
(10.0482 0.00271723 0)
(10.0518 0.00190551 0)
(10.0553 0.00104897 0)
(10.0585 0.000166998 0)
(10.0616 -0.000720217 0)
(10.0645 -0.00158056 0)
(10.0004 -4.36542e-05 0)
(10.0021 -8.96648e-05 0)
(10.005 -0.000140213 0)
(10.0085 -0.00021953 0)
(10.0126 -0.00035207 0)
(10.0168 -0.000553593 0)
(10.0212 -0.000832201 0)
(10.0256 -0.0011903 0)
(10.0299 -0.00162623 0)
(10.0342 -0.00213483 0)
(10.0383 -0.00270844 0)
(10.0422 -0.00333748 0)
(10.0459 -0.00401101 0)
(10.0494 -0.00471759 0)
(10.0528 -0.00544554 0)
(10.0559 -0.00618301 0)
(10.0589 -0.00691698 0)
(10.0617 -0.00762451 0)
(10.0004 -0.00136188 0)
(10.0023 -0.00273313 0)
(10.0052 -0.00384863 0)
(10.0088 -0.00474003 0)
(10.0129 -0.00547894 0)
(10.0172 -0.00612313 0)
(10.0215 -0.00671378 0)
(10.0259 -0.00728068 0)
(10.0301 -0.00784422 0)
(10.0343 -0.00841637 0)
(10.0383 -0.0090028 0)
(10.0421 -0.00960454 0)
(10.0458 -0.0102196 0)
(10.0492 -0.010844 0)
(10.0525 -0.0114725 0)
(10.0556 -0.0120992 0)
(10.0585 -0.0127162 0)
(10.0613 -0.0133075 0)
(10.0005 -0.00267262 0)
(10.0026 -0.0053039 0)
(10.0059 -0.0073669 0)
(10.0099 -0.00894295 0)
(10.0141 -0.0101746 0)
(10.0185 -0.0111667 0)
(10.023 -0.0119934 0)
(10.0274 -0.0127112 0)
(10.0317 -0.0133609 0)
(10.0358 -0.0139695 0)
(10.0398 -0.0145538 0)
(10.0436 -0.0151236 0)
(10.0472 -0.0156841 0)
(10.0507 -0.0162371 0)
(10.0539 -0.0167825 0)
(10.057 -0.0173189 0)
(10.0599 -0.0178423 0)
(10.0626 -0.0183419 0)
(10.0007 -0.00409196 0)
(10.0033 -0.00798025 0)
(10.0071 -0.0108797 0)
(10.0116 -0.0130082 0)
(10.0162 -0.0146154 0)
(10.0209 -0.0158561 0)
(10.0255 -0.0168377 0)
(10.03 -0.0176432 0)
(10.0344 -0.0183317 0)
(10.0386 -0.0189426 0)
(10.0426 -0.0195017 0)
(10.0464 -0.0200255 0)
(10.05 -0.0205244 0)
(10.0534 -0.0210047 0)
(10.0566 -0.0214703 0)
(10.0596 -0.0219229 0)
(10.0624 -0.022362 0)
(10.0651 -0.0227811 0)
(10.0009 -0.00574557 0)
(10.0043 -0.0109097 0)
(10.009 -0.0145036 0)
(10.0141 -0.0170335 0)
(10.0191 -0.0188902 0)
(10.0241 -0.0202732 0)
(10.029 -0.0213232 0)
(10.0336 -0.0221488 0)
(10.038 -0.0228245 0)
(10.0422 -0.0233993 0)
(10.0462 -0.0239049 0)
(10.0499 -0.0243627 0)
(10.0535 -0.0247864 0)
(10.0568 -0.0251853 0)
(10.0599 -0.0255657 0)
(10.0628 -0.0259321 0)
(10.0655 -0.026287 0)
(10.0681 -0.026628 0)
(10.0014 -0.0077858 0)
(10.0059 -0.014212 0)
(10.0117 -0.0182891 0)
(10.0175 -0.02104 0)
(10.0229 -0.0230064 0)
(10.0282 -0.0244168 0)
(10.0331 -0.0254435 0)
(10.0378 -0.0262188 0)
(10.0422 -0.0268289 0)
(10.0463 -0.0273278 0)
(10.0501 -0.0277511 0)
(10.0537 -0.0281221 0)
(10.0571 -0.0284561 0)
(10.0602 -0.0287635 0)
(10.0631 -0.0290516 0)
(10.0658 -0.0293266 0)
(10.0683 -0.0295936 0)
(10.0707 -0.0298555 0)
(10.0021 -0.0104004 0)
(10.0083 -0.0179633 0)
(10.0154 -0.0222092 0)
(10.0217 -0.024966 0)
(10.0274 -0.0268878 0)
(10.0327 -0.0282045 0)
(10.0376 -0.0291175 0)
(10.0421 -0.0297781 0)
(10.0462 -0.0302769 0)
(10.05 -0.0306683 0)
(10.0536 -0.0309872 0)
(10.0568 -0.0312567 0)
(10.0599 -0.0314911 0)
(10.0627 -0.0317 0)
(10.0653 -0.0318904 0)
(10.0677 -0.0320688 0)
(10.0699 -0.0322429 0)
(10.0719 -0.032422 0)
(10.0033 -0.0138114 0)
(10.0117 -0.0221549 0)
(10.0199 -0.0261369 0)
(10.0264 -0.0286623 0)
(10.032 -0.030386 0)
(10.037 -0.031499 0)
(10.0415 -0.0322233 0)
(10.0455 -0.0327192 0)
(10.0491 -0.033074 0)
(10.0524 -0.0333375 0)
(10.0554 -0.0335415 0)
(10.0582 -0.0337057 0)
(10.0607 -0.0338416 0)
(10.063 -0.0339558 0)
(10.0651 -0.0340526 0)
(10.067 -0.0341363 0)
(10.0688 -0.0342159 0)
(10.0704 -0.0343088 0)
(10.0051 -0.018275 0)
(10.016 -0.0266164 0)
(10.0248 -0.0298018 0)
(10.0308 -0.0318746 0)
(10.0357 -0.0332674 0)
(10.0399 -0.0340927 0)
(10.0435 -0.0345839 0)
(10.0466 -0.0348968 0)
(10.0494 -0.0351042 0)
(10.0518 -0.0352442 0)
(10.054 -0.035341 0)
(10.0559 -0.0354091 0)
(10.0577 -0.0354562 0)
(10.0592 -0.0354847 0)
(10.0606 -0.035494 0)
(10.0618 -0.0354835 0)
(10.0629 -0.0354591 0)
(10.0638 -0.0354428 0)
(10.0075 -0.0241105 0)
(10.0207 -0.0309929 0)
(10.0288 -0.0327679 0)
(10.0332 -0.0342516 0)
(10.0365 -0.0352777 0)
(10.0392 -0.035809 0)
(10.0412 -0.0360757 0)
(10.0428 -0.0362212 0)
(10.044 -0.0362985 0)
(10.045 -0.0363312 0)
(10.0457 -0.0363351 0)
(10.0462 -0.0363198 0)
(10.0466 -0.0362888 0)
(10.0468 -0.0362411 0)
(10.0469 -0.0361705 0)
(10.0468 -0.0360675 0)
(10.0467 -0.0359266 0)
(10.0463 -0.0357566 0)
(10.0101 -0.0307363 0)
(10.0239 -0.0343872 0)
(10.0287 -0.0343303 0)
(10.0293 -0.0351918 0)
(10.0291 -0.0358788 0)
(10.0283 -0.0361491 0)
(10.0269 -0.0362137 0)
(10.025 -0.0361997 0)
(10.0229 -0.0361435 0)
(10.0205 -0.0360592 0)
(10.018 -0.0359577 0)
(10.0154 -0.0358458 0)
(10.0127 -0.0357251 0)
(10.0099 -0.0355917 0)
(10.0071 -0.0354346 0)
(10.0042 -0.0352312 0)
(10.0013 -0.0349468 0)
(9.99808 -0.0345175 0)
(10.0062 -0.0364029 0)
(10.0142 -0.0379355 0)
(10.0067 -0.0360941 0)
(9.99434 -0.0359501 0)
(9.98177 -0.0359649 0)
(9.96901 -0.0357485 0)
(9.95587 -0.0354414 0)
(9.94254 -0.0351301 0)
(9.92919 -0.0348278 0)
(9.91593 -0.0345322 0)
(9.90279 -0.0342433 0)
(9.88981 -0.0339605 0)
(9.87703 -0.0336816 0)
(9.86447 -0.0334008 0)
(9.85216 -0.0331057 0)
(9.84011 -0.0327661 0)
(9.82839 -0.0323133 0)
(9.81643 -0.0313608 0)
(9.89293 -0.0248295 0)
(9.80339 -0.0270724 0)
(9.69912 -0.0264826 0)
(9.59618 -0.0263312 0)
(9.49972 -0.026136 0)
(9.4088 -0.0257869 0)
(9.32257 -0.0253763 0)
(9.24079 -0.0249585 0)
(9.16327 -0.0245461 0)
(9.08982 -0.024141 0)
(9.02019 -0.0237436 0)
(8.95418 -0.0233541 0)
(8.8916 -0.0229715 0)
(8.83226 -0.0225932 0)
(8.77601 -0.0222141 0)
(8.72272 -0.0218182 0)
(8.67249 -0.0213583 0)
(8.62379 -0.0204763 0)
(0.00769278 -0.0146259 0)
(0.0187682 -0.0205127 0)
(0.03293 -0.0208231 0)
(0.0452921 -0.017837 0)
(0.0542884 -0.0133339 0)
(0.0595128 -0.00829427 0)
(0.0608328 -0.00314166 -1.86324e-19)
(0.058008 0.00198059 1.79144e-19)
(0.0514292 0.00690739 0)
(0.0413547 0.0116651 1.74938e-19)
(0.0280585 0.0163639 0)
(0.0119047 0.0209734 0)
(-0.00779937 0.025293 0)
(-0.0295242 0.0286388 -1.65801e-19)
(-0.053465 0.0312457 0)
(-0.079263 0.0333119 0)
(-0.10661 0.0349316 1.26678e-19)
(-0.135256 0.0361648 0)
(-0.164978 0.0370618 0)
(-0.195577 0.0376665 0)
(-0.22687 0.0380175 -9.3391e-20)
(-0.258703 0.0381479 0)
(-0.290938 0.0380884 -8.20388e-20)
(-0.32346 0.0378698 0)
(-0.356159 0.0375253 0)
(-0.388942 0.0370883 -6.91757e-20)
(-0.421775 0.036581 0)
(-0.454719 0.0359785 6.25905e-20)
(-0.487839 0.0353356 0)
(-0.520901 0.0354423 -5.67344e-20)
(-0.553947 0.0357281 0)
(-0.58709 0.0355071 0)
(-0.62024 0.0352093 0)
(-0.65339 0.0349164 0)
(-0.686546 0.0346358 0)
(-0.719713 0.0343675 4.54729e-20)
(-0.752897 0.0341113 0)
(-0.786104 0.0338674 -8.5575e-20)
(-0.819342 0.0336364 0)
(-0.852615 0.0334189 8.08953e-20)
(-0.885931 0.0332155 0)
(-0.919295 0.0330268 0)
(-0.952716 0.032853 -7.49075e-20)
(-0.986204 0.0326944 0)
(-1.01977 0.0325507 -7.14705e-20)
(-1.05344 0.0324218 6.98915e-20)
(-1.08721 0.0323072 0)
(-1.12111 0.0322068 6.69761e-20)
(-1.15515 0.0321207 6.56272e-20)
(-1.18934 0.0320494 0)
(-1.22371 0.0319936 0)
(-1.25826 0.0319538 0)
(-1.29302 0.0319306 0)
(-1.328 0.031924 0)
(-1.36321 0.0319338 -5.87501e-20)
(-1.39869 0.0319599 0)
(-1.43446 0.032002 5.6831e-20)
(-1.47053 0.0320604 0)
(-1.50692 0.0321353 0)
(-1.54367 0.032227 -5.42238e-20)
(-1.58079 0.0323361 0)
(-1.61831 0.0324628 5.26416e-20)
(-1.65625 0.0326076 0)
(-1.69464 0.0327705 0)
(-1.73352 0.0329518 0)
(-1.77291 0.0331511 -4.97905e-20)
(-1.81285 0.0333683 0)
(-1.85337 0.0336032 0)
(-1.8945 0.0338556 -4.7885e-20)
(-1.93628 0.0341258 0)
(-1.97875 0.0344145 -4.67097e-20)
(-2.02193 0.0347225 0)
(-2.06587 0.0350503 0)
(-2.11061 0.0353983 0)
(-2.15619 0.0357661 4.45582e-20)
(-2.20265 0.0361538 0)
(-2.25003 0.036561 0)
(-2.29838 0.0369871 4.3098e-20)
(-2.34773 0.0374312 4.26374e-20)
(-2.39813 0.0378919 0)
(-2.44962 0.0383679 4.17522e-20)
(-2.50224 0.0388574 0)
(-2.55602 0.0393585 8.18235e-20)
(-2.61102 0.0398688 0)
(-2.66724 0.0403851 8.02234e-20)
(-2.72471 0.040903 0)
(-2.78345 0.0414169 -7.86936e-20)
(-2.84347 0.0419198 0)
(-2.90474 0.0424025 0)
(-2.96725 0.0428539 0)
(-3.03095 0.0432605 7.57895e-20)
(-3.09578 0.0436062 0)
(-3.16164 0.0438728 -7.43738e-20)
(-3.2284 0.0440395 0)
(-3.2959 0.0440824 7.29397e-20)
(-3.36392 0.0439738 7.22014e-20)
(-3.43221 0.0436819 7.14389e-20)
(-3.50044 0.0431703 0)
(-3.56823 0.0423979 0)
(-3.63513 0.0413192 0)
(-3.70061 0.0398859 0)
(-3.76403 0.0380453 0)
(-3.82465 0.0357394 0)
(-3.88157 0.0329035 0)
(-3.9338 0.0294662 0)
(-3.98027 0.0253485 -6.13049e-20)
(-4.01982 0.0204615 -5.94386e-20)
(-4.05108 0.0147224 0)
(-4.07241 0.00808887 0)
(-4.08185 0.000582629 0)
(-4.07781 -0.00778536 -4.86592e-20)
(-4.05869 -0.0170475 0)
(-4.02278 -0.0272209 0)
(-3.96844 -0.038275 0)
(-3.89414 -0.0501472 0)
(-3.79857 -0.0627408 2.33716e-20)
(-3.6807 -0.0759226 0)
(-3.53986 -0.0895195 0)
(-3.37585 -0.103317 8.61117e-22)
(-3.18899 -0.117058 -1.08376e-20)
(-2.98023 -0.130453 0)
(-2.75116 -0.143176 -3.40304e-20)
(-2.50404 -0.154872 0)
(-2.24172 -0.165132 6.20168e-20)
(-1.96754 -0.173513 0)
(-1.68522 -0.179623 0)
(-1.39873 -0.183295 0)
(-1.11216 -0.184748 0)
(-0.82937 -0.184457 0)
(-0.553954 -0.182789 -3.67428e-19)
(-0.288356 -0.179883 -4.28778e-19)
(-0.0219578 -0.173484 0)
(0.226538 -0.162428 0)
(0.457923 -0.150176 0)
(0.674235 -0.137783 4.5359e-19)
(0.875245 -0.125691 0)
(1.0613 -0.114167 0)
(1.23297 -0.103359 0)
(1.39098 -0.0933403 4.12525e-19)
(1.5361 -0.0841263 -4.04339e-19)
(1.66916 -0.0757064 0)
(1.79099 -0.0680528 0)
(1.90242 -0.0611238 -3.84059e-19)
(2.00426 -0.0548712 -3.78554e-19)
(2.09729 -0.0492455 0)
(2.18225 -0.0441963 0)
(2.25984 -0.0396737 3.65129e-19)
(2.33071 -0.0356275 -3.61547e-19)
(2.39546 -0.03201 0)
(2.45464 -0.0287791 0)
(2.5088 -0.0258973 -3.52969e-19)
(2.55842 -0.0233293 0)
(2.60393 -0.0210421 0)
(2.64574 -0.0190062 -3.47014e-19)
(2.68421 -0.0171948 0)
(2.71967 -0.0155824 -3.4417e-19)
(2.75241 -0.014146 0)
(2.7827 -0.0128661 0)
(2.81079 -0.0117251 0)
(2.8369 -0.010706 3.40496e-19)
(2.86122 -0.00979455 0)
(2.88393 -0.00897922 0)
(2.90518 -0.00824699 0)
(2.92509 -0.00758555 0)
(2.94378 -0.00698486 0)
(2.96135 -0.0064337 0)
(2.97783 -0.00592065 3.38399e-19)
(2.99329 -0.00543438 3.3844e-19)
(3.00772 -0.00496143 0)
(3.02108 -0.00448774 0)
(3.03329 -0.00399266 0)
(3.04417 -0.0034457 -3.39679e-19)
(3.05344 -0.00281205 0)
(3.06066 -0.00205053 6.82843e-19)
(3.06526 -0.00105564 -6.85188e-19)
(3.06596 0.000397756 -6.88584e-19)
(3.06058 0.00272961 6.93714e-19)
(3.04402 0.00708451 -7.01997e-19)
(3.00999 0.0164841 7.16499e-19)
(2.88957 0.0448888 0)
(0.0075611 -0.0396301 0)
(0.0164642 -0.0429676 0)
(0.0221203 -0.0368345 2.54962e-19)
(0.0247922 -0.0273514 0)
(0.0241074 -0.0162977 -1.94078e-19)
(0.0200279 -0.00455033 -1.84039e-19)
(0.0126266 0.00733037 -8.83938e-20)
(0.00235619 0.0187048 -8.48499e-20)
(-0.0107532 0.0292007 0)
(-0.0263021 0.0385941 -7.43042e-20)
(-0.044099 0.0470425 0)
(-0.0638456 0.0546102 0)
(-0.0852923 0.0611794 1.18046e-19)
(-0.108195 0.0667063 5.47515e-20)
(-0.132452 0.0713259 -1.01494e-19)
(-0.157902 0.0751368 -9.43898e-20)
(-0.184387 0.0782261 -4.40762e-20)
(-0.21176 0.0806734 0)
(-0.239889 0.0825541 0)
(-0.268657 0.0839404 0)
(-0.29796 0.0849008 -3.40978e-20)
(-0.327713 0.085499 0)
(-0.357845 0.0857938 9.20529e-20)
(-0.388298 0.08584 0)
(-0.419029 0.0856888 0)
(-0.450003 0.0853861 2.66788e-20)
(-0.481194 0.0849659 0)
(-0.512569 0.0844377 -2.457e-20)
(-0.544062 0.0838348 -4.70822e-20)
(-0.575562 0.0832474 2.27246e-20)
(-0.607078 0.0826916 0)
(-0.63866 0.0821016 0)
(-0.670308 0.0814962 0)
(-0.702005 0.080888 -3.93999e-20)
(-0.73374 0.0802833 -3.81977e-20)
(-0.765511 0.0796865 -1.86308e-20)
(-0.797318 0.0791013 0)
(-0.829161 0.0785308 3.52569e-20)
(-0.861046 0.0779781 0)
(-0.892976 0.0774458 -3.35125e-20)
(-0.924956 0.076936 0)
(-0.956993 0.0764505 0)
(-0.989094 0.0759908 3.12953e-20)
(-1.02127 0.0755578 0)
(-1.05353 0.0751523 8.97475e-20)
(-1.08588 0.0747747 -2.94643e-20)
(-1.11835 0.0744254 0)
(-1.15093 0.0741051 -2.84185e-20)
(-1.18365 0.0738149 -2.79409e-20)
(-1.21652 0.0735561 0)
(-1.24956 0.0733301 0)
(-1.28277 0.0731382 0)
(-1.31618 0.0729815 0)
(-1.34979 0.0728604 0)
(-1.38364 0.0727754 2.55985e-20)
(-1.41775 0.0727267 5.01965e-20)
(-1.45212 0.0727149 -2.49842e-20)
(-1.48679 0.0727411 0)
(-1.52178 0.0728065 4.85072e-20)
(-1.5571 0.0729126 -2.38183e-20)
(-1.59278 0.0730608 0)
(-1.62886 0.0732524 -2.37369e-20)
(-1.66535 0.0734882 0)
(-1.70228 0.0737692 0)
(-1.73969 0.0740957 -4.59356e-20)
(-1.77761 0.0744683 2.29894e-20)
(-1.81606 0.0748875 -4.52817e-20)
(-1.85509 0.0753536 4.49885e-20)
(-1.89472 0.0758676 2.25523e-20)
(-1.93499 0.0764304 0)
(-1.97594 0.0770433 2.23131e-20)
(-2.0176 0.0777071 0)
(-2.06 0.0784226 0)
(-2.10319 0.0791894 0)
(-2.1472 0.0800071 2.15406e-20)
(-2.19207 0.0808747 0)
(-2.23783 0.0817908 4.32058e-20)
(-2.28452 0.0827534 -6.48358e-20)
(-2.33216 0.0837593 -2.1697e-20)
(-2.38078 0.0848045 0)
(-2.43042 0.0858841 -2.1608e-20)
(-2.48109 0.0869923 0)
(-2.5328 0.0881223 -4.30699e-20)
(-2.58557 0.0892658 0)
(-2.6394 0.0904129 -4.29431e-20)
(-2.69428 0.0915512 8.49161e-20)
(-2.75019 0.0926658 4.28207e-20)
(-2.8071 0.0937383 0)
(-2.86497 0.094747 0)
(-2.92373 0.095666 0)
(-2.98331 0.0964654 -4.25178e-20)
(-3.04358 0.0971105 0)
(-3.10443 0.0975617 4.22927e-20)
(-3.16567 0.0977738 0)
(-3.22712 0.0976953 -1.25184e-19)
(-3.28852 0.097268 -4.17786e-20)
(-3.34959 0.0964263 -4.15399e-20)
(-3.40999 0.0950959 0)
(-3.46931 0.0931931 0)
(-3.52709 0.0906251 0)
(-3.58279 0.087292 0)
(-3.6358 0.0830872 0)
(-3.6854 0.0778961 -7.74208e-20)
(-3.73074 0.0715945 -7.60187e-20)
(-3.77089 0.0640494 0)
(-3.80486 0.0551163 3.62202e-20)
(-3.83157 0.0446337 3.5043e-20)
(-3.8498 0.0324348 0)
(-3.858 0.0183874 6.48249e-20)
(-3.85446 0.00247288 0)
(-3.838 -0.0152293 -2.90561e-20)
(-3.80697 -0.034687 0)
(-3.75981 -0.0558385 0)
(-3.69499 -0.0785444 4.13611e-20)
(-3.6111 -0.102588 0)
(-3.50693 -0.127671 -1.26527e-20)
(-3.38149 -0.153413 0)
(-3.23416 -0.179355 0)
(-3.06472 -0.204959 -3.05824e-21)
(-2.87348 -0.229628 5.40057e-21)
(-2.66135 -0.252721 0)
(-2.42988 -0.273588 -1.16169e-20)
(-2.18125 -0.291585 0)
(-1.91822 -0.306084 2.25582e-20)
(-1.64407 -0.316532 6.16504e-20)
(-1.36252 -0.322587 0)
(-1.07747 -0.324346 0)
(-0.792679 -0.322477 0)
(-0.511128 -0.318005 0)
(-0.234182 -0.311247 1.28559e-19)
(0.0383262 -0.301117 4.01349e-19)
(0.294174 -0.285904 0)
(0.534074 -0.266726 0)
(0.758365 -0.246945 0)
(0.967267 -0.227381 -1.4778e-19)
(1.16115 -0.208483 0)
(1.34053 -0.190516 0)
(1.50608 -0.173629 3.02113e-19)
(1.65857 -0.157894 1.50656e-19)
(1.79877 -0.143333 1.56782e-19)
(1.92752 -0.129931 0)
(2.04564 -0.117656 0)
(2.15392 -0.106456 1.60957e-19)
(2.25315 -0.096273 -1.59506e-19)
(2.34407 -0.0870438 0)
(2.4274 -0.0787027 0)
(2.50382 -0.0711827 -1.65913e-19)
(2.57395 -0.0644158 4.99498e-19)
(2.63837 -0.0583353 0)
(2.69762 -0.0528795 0)
(2.75221 -0.0479908 1.70648e-19)
(2.80257 -0.0436148 0)
(2.84914 -0.0397008 3.44926e-19)
(2.89228 -0.0362029 -1.73197e-19)
(2.93235 -0.0330788 0)
(2.96965 -0.030289 1.76627e-19)
(3.00446 -0.0277972 3.54899e-19)
(3.03704 -0.0255712 0)
(3.06762 -0.0235826 0)
(3.09641 -0.0218041 -1.81531e-19)
(3.12358 -0.0202108 0)
(3.14928 -0.0187809 3.67493e-19)
(3.17368 -0.0174927 0)
(3.19687 -0.0163246 0)
(3.21896 -0.0152566 0)
(3.24004 -0.0142679 0)
(3.26016 -0.0133369 -1.90307e-19)
(3.27936 -0.0124402 -1.91589e-19)
(3.29763 -0.0115485 0)
(3.31492 -0.0106272 0)
(3.33116 -0.0096301 0)
(3.34619 -0.0084895 1.97037e-19)
(3.35974 -0.00711545 0)
(3.3714 -0.00538459 -4.00599e-19)
(3.38039 -0.00304233 4.04249e-19)
(3.38569 0.000416626 4.08307e-19)
(3.3855 0.00594187 4.13022e-19)
(3.37593 0.0158054 4.20812e-19)
(3.35494 0.0356048 4.31024e-19)
(3.2918 0.0829372 0)
(0.00277731 -0.0579638 0)
(0.00528956 -0.0519988 0)
(0.00336794 -0.0373127 -1.96109e-19)
(-0.00157936 -0.020237 -1.61018e-19)
(-0.00948585 -0.00241186 1.40011e-19)
(-0.0198579 0.0152555 1.24707e-19)
(-0.0321564 0.0319883 6.59925e-23)
(-0.0462308 0.0475068 0)
(-0.0619169 0.0616704 0)
(-0.079102 0.0744308 0)
(-0.0976771 0.0858197 0)
(-0.117492 0.0958703 0)
(-0.138411 0.104603 -2.13953e-19)
(-0.160341 0.112061 0)
(-0.1832 0.118329 6.24937e-20)
(-0.206902 0.123509 5.86699e-20)
(-0.231363 0.127707 0)
(-0.256501 0.131028 0)
(-0.282244 0.133577 0)
(-0.308526 0.135453 0)
(-0.335288 0.136751 4.42656e-20)
(-0.362477 0.137557 0)
(-0.390047 0.137953 -4.01798e-20)
(-0.417958 0.138013 0)
(-0.446174 0.137804 0)
(-0.474662 0.137388 0)
(-0.503391 0.136817 -6.76925e-20)
(-0.532329 0.136133 0)
(-0.561436 0.135363 3.14625e-20)
(-0.590663 0.134522 -6.05723e-20)
(-0.619989 0.133624 0)
(-0.64941 0.132679 0)
(-0.678919 0.131706 0)
(-0.708509 0.130719 2.66717e-20)
(-0.738171 0.129731 2.59078e-20)
(-0.767901 0.128751 0)
(-0.797698 0.127785 0)
(-0.827559 0.126842 -4.76746e-20)
(-0.857485 0.125924 -4.65193e-20)
(-0.887478 0.125038 4.54397e-20)
(-0.917539 0.124187 0)
(-0.947672 0.123373 0)
(-0.977883 0.1226 0)
(-1.00818 0.121869 0)
(-1.03856 0.121181 -4.11573e-20)
(-1.06904 0.120538 -4.0263e-20)
(-1.09963 0.119941 3.95784e-20)
(-1.13034 0.119391 0)
(-1.16118 0.118891 0)
(-1.19216 0.118443 0)
(-1.22329 0.118048 0)
(-1.25459 0.117709 -3.67359e-20)
(-1.28607 0.117427 0)
(-1.31774 0.117203 0)
(-1.34963 0.117038 -3.54172e-20)
(-1.38174 0.116933 -3.52021e-20)
(-1.4141 0.11689 0)
(-1.44673 0.116911 6.86715e-20)
(-1.47964 0.116998 -3.4194e-20)
(-1.51286 0.117153 3.39032e-20)
(-1.54641 0.117379 0)
(-1.58032 0.117677 0)
(-1.61461 0.118049 0)
(-1.6493 0.118496 0)
(-1.68443 0.119019 3.27509e-20)
(-1.72002 0.119619 6.47993e-20)
(-1.75611 0.120297 3.24189e-20)
(-1.79273 0.121055 -3.22784e-20)
(-1.8299 0.121892 0)
(-1.86767 0.12281 6.37309e-20)
(-1.90607 0.123811 6.35428e-20)
(-1.94514 0.124894 6.33844e-20)
(-1.9849 0.126058 -6.32544e-20)
(-2.02539 0.127301 0)
(-2.06664 0.128622 -9.48e-20)
(-2.1087 0.130017 0)
(-2.15159 0.131482 3.13092e-20)
(-2.19534 0.133011 3.16853e-20)
(-2.23998 0.134597 0)
(-2.28553 0.136231 0)
(-2.33202 0.137903 6.30852e-20)
(-2.37946 0.1396 0)
(-2.42786 0.141309 6.32199e-20)
(-2.47723 0.143014 0)
(-2.52754 0.144693 -6.33864e-20)
(-2.5788 0.146325 -1.27331e-19)
(-2.63097 0.147881 0)
(-2.68402 0.149329 0)
(-2.73788 0.150631 0)
(-2.79248 0.151743 -6.3757e-20)
(-2.84774 0.152615 0)
(-2.90352 0.153191 -6.37934e-20)
(-2.95968 0.153406 0)
(-3.01606 0.153185 0)
(-3.07244 0.152446 1.2745e-19)
(-3.12858 0.151095 0)
(-3.18418 0.149027 6.31672e-20)
(-3.2389 0.146124 0)
(-3.29234 0.142256 6.24417e-20)
(-3.34404 0.137279 0)
(-3.39349 0.131037 0)
(-3.44008 0.123362 0)
(-3.48312 0.114075 1.7881e-19)
(-3.5218 0.102983 5.84038e-20)
(-3.55524 0.0898853 0)
(-3.58247 0.0745696 0)
(-3.6025 0.056817 0)
(-3.61418 0.0364155 0)
(-3.61595 0.0132019 -4.90343e-20)
(-3.60658 -0.0128586 9.36413e-20)
(-3.58464 -0.0417248 4.26823e-20)
(-3.54863 -0.073354 -8.00508e-20)
(-3.49705 -0.107616 -7.21193e-20)
(-3.42843 -0.144271 -3.02975e-20)
(-3.34139 -0.182952 0)
(-3.23469 -0.223159 -4.36005e-20)
(-3.10732 -0.264251 0)
(-2.95858 -0.305447 2.07192e-20)
(-2.78818 -0.34584 1.84648e-21)
(-2.5963 -0.384415 0)
(-2.38376 -0.420082 1.85737e-20)
(-2.15201 -0.451735 1.90026e-20)
(-1.90315 -0.478291 0)
(-1.63994 -0.498761 2.79138e-20)
(-1.36574 -0.512412 -1.1706e-19)
(-1.08444 -0.519021 0)
(-0.800059 -0.519074 0)
(-0.516235 -0.513683 0)
(-0.235537 -0.503584 0)
(0.0398042 -0.487787 -1.43099e-19)
(0.299693 -0.465977 -1.54756e-19)
(0.543828 -0.438989 0)
(0.772757 -0.40938 0)
(0.986638 -0.379257 0)
(1.18556 -0.34962 0)
(1.36991 -0.321058 0)
(1.54026 -0.293922 0)
(1.69733 -0.26841 -1.84371e-19)
(1.84189 -0.244619 -2.49907e-21)
(1.97475 -0.222576 0)
(2.09673 -0.202261 0)
(2.20866 -0.183625 -1.94117e-19)
(2.3113 -0.166598 0)
(2.40544 -0.151095 2.01017e-19)
(2.49179 -0.137025 2.02005e-19)
(2.57103 -0.12429 0)
(2.64381 -0.112793 0)
(2.71073 -0.102435 -2.10202e-19)
(2.77234 -0.0931187 -4.22859e-19)
(2.82916 -0.0847526 0)
(2.88165 -0.0772492 0)
(2.93025 -0.0705265 0)
(2.97534 -0.0645083 -2.20962e-19)
(3.01728 -0.0591245 2.23088e-19)
(3.05639 -0.0543106 0)
(3.09296 -0.0500075 4.53615e-19)
(3.12724 -0.0461605 2.28482e-19)
(3.15949 -0.0427202 -4.62295e-19)
(3.1899 -0.0396431 0)
(3.21866 -0.0368883 0)
(3.24595 -0.0344168 -4.75328e-19)
(3.2719 -0.0321936 -2.40195e-19)
(3.29665 -0.0301863 0)
(3.3203 -0.0283622 0)
(3.34294 -0.0266895 0)
(3.36466 -0.0251365 0)
(3.38549 -0.0236698 -5.0154e-19)
(3.40546 -0.0222526 0)
(3.42458 -0.0208385 0)
(3.44279 -0.0193714 0)
(3.46001 -0.0177805 0)
(3.4761 -0.0159636 0)
(3.49081 -0.0137738 0)
(3.50379 -0.0109916 -5.35518e-19)
(3.51442 -0.00724674 0)
(3.52185 -0.00184433 0)
(3.52488 0.00650126 -1.11574e-18)
(3.52112 0.0204753 5.70051e-19)
(3.51149 0.0457355 -5.89441e-19)
(3.48234 0.0955086 6.18029e-19)
(-0.00292275 -0.0578808 0)
(-0.00690809 -0.0433271 4.78596e-19)
(-0.0152843 -0.0222548 0)
(-0.0262201 -2.91167e-05 1.24796e-19)
(-0.0387389 0.0217454 0)
(-0.0523765 0.0423474 0)
(-0.0670505 0.0616048 -8.18164e-20)
(-0.0826896 0.0794138 0)
(-0.0992417 0.0956899 0)
(-0.116668 0.110391 0)
(-0.134926 0.12352 0)
(-0.153961 0.13511 0)
(-0.173723 0.145211 2.06237e-19)
(-0.194171 0.153895 9.6791e-20)
(-0.215269 0.161256 -9.11225e-20)
(-0.236979 0.167399 0)
(-0.259262 0.172436 0)
(-0.282083 0.176483 0)
(-0.305406 0.179654 0)
(-0.329196 0.182055 0)
(-0.353421 0.18379 6.66793e-20)
(-0.378049 0.184954 6.3764e-20)
(-0.403049 0.185632 -6.10873e-20)
(-0.42839 0.185903 5.86235e-20)
(-0.454044 0.185836 0)
(-0.47998 0.185491 0)
(-0.506167 0.184922 5.23488e-20)
(-0.532578 0.184174 0)
(-0.559183 0.183285 0)
(-0.585955 0.182284 4.72728e-20)
(-0.612876 0.181198 4.57436e-20)
(-0.639931 0.180049 4.43762e-20)
(-0.667108 0.178856 0)
(-0.694397 0.177637 0)
(-0.721787 0.176406 -4.08049e-20)
(-0.749271 0.175174 0)
(-0.776844 0.173951 0)
(-0.804501 0.172747 3.79658e-20)
(-0.832239 0.171569 -3.69731e-20)
(-0.860056 0.170424 3.61772e-20)
(-0.887953 0.169318 0)
(-0.915928 0.168254 0)
(-0.943986 0.167238 6.82981e-20)
(-0.972128 0.166272 0)
(-1.00036 0.165358 6.59074e-20)
(-1.02868 0.164501 9.7306e-20)
(-1.05711 0.163701 -9.57733e-20)
(-1.08564 0.162962 6.28372e-20)
(-1.11428 0.162286 0)
(-1.14305 0.161677 0)
(-1.17195 0.161138 6.02916e-20)
(-1.201 0.160669 2.98508e-20)
(-1.2302 0.160275 0)
(-1.25957 0.159956 0)
(-1.28912 0.159716 2.88658e-20)
(-1.31886 0.159556 5.69991e-20)
(-1.34882 0.159479 0)
(-1.379 0.159489 -5.61255e-20)
(-1.40943 0.159589 5.5503e-20)
(-1.44012 0.159782 -5.5075e-20)
(-1.47109 0.16007 0)
(-1.50238 0.160457 0)
(-1.53399 0.160945 0)
(-1.56595 0.161536 0)
(-1.5983 0.162232 0)
(-1.63105 0.163035 -5.3342e-20)
(-1.66423 0.163948 0)
(-1.69788 0.164971 0)
(-1.73203 0.166106 0)
(-1.76671 0.167355 -1.05158e-19)
(-1.80195 0.168717 -5.25617e-20)
(-1.83779 0.170192 -5.24853e-20)
(-1.87425 0.171779 1.04694e-19)
(-1.91138 0.173475 -5.22323e-20)
(-1.9492 0.175276 5.2403e-20)
(-1.98776 0.177177 0)