/*--------------------------------*- C++ -*----------------------------------*\
| =========                 |                                                 |
| \\      /  F ield         | OpenFOAM: The Open Source CFD Toolbox           |
|  \\    /   O peration     | Version:  1.4.2                                 |
|   \\  /    A nd           | Web:      http://www.openfoam.org               |
|    \\/     M anipulation  |                                                 |
\*---------------------------------------------------------------------------*/
FoamFile
{
    version     2.0;
    format      ascii;
    class       volScalarField;
    object      epsilon;
    location    "100";
}
// * * * * * * * * * * * * * * * * * * * * * * * * * * * * * * * * * * * * * //

dimensions      [0 2 -3 0 0 0 0];

internalField   nonuniform List<scalar> 
12225
(
474.823
667.281
1749.33
6463.45
12570.7
18924.5
24847.4
30033.5
34396.3
37956.3
40778.5
42942.8
44531.5
45618.6
46273.7
46575.5
46582.8
46827.2
75.1488
190.727
581.094
1778.58
3633.28
5822.48
8053.87
10136.5
11972.4
13525.9
14796.3
15801
16566.3
17120.7
17489.5
17699
17770.5
17730.2
44.6584
158.702
470.951
1176.57
2253.44
3557.06
4927.35
6242.73
7429.77
8453.39
9303.61
9985.18
10511.9
10898.9
11162.1
11317
11375.3
11336.3
43.0753
168.229
463.425
1011.71
1797.69
2735.09
3722.69
4678.3
5548.3
6304.29
6935.89
7444.56
7838.26
8127.39
8323.36
8437.24
8476.74
8441.39
48.4634
187.428
476.656
946.238
1577.33
2310.19
3075.18
3814.07
4487.3
5072.81
5561.87
5955
6257.54
6477.42
6623.47
6704.14
6725.23
6688.28
57.1777
210.095
494.979
913.427
1444.25
2042.63
2658.15
3248.3
3783.62
4247.33
4632.78
4940.26
5174.02
5340.48
5446.77
5499.63
5503.82
5461.94
67.9066
233.662
513.507
893.47
1351.61
1852.63
2358.83
2838.66
3270.18
3640.91
3946.19
4186.47
4365.52
4488.79
4562.19
4591.24
4580.05
4531.39
77.6425
251.795
525.492
878.021
1287.58
1724.6
2158.97
2565.92
2928.36
3236.77
3487.81
3682.31
3823.78
3917.05
3967.27
3979.17
3956.38
3901.48
83.4237
259.098
522.548
849.792
1219.65
1606.89
1986.81
2339.36
2650.81
2913.66
3125.37
3286.96
3401.63
3473.7
3507.66
3507.64
3476.93
3417.95
86.8259
258.953
507.633
807.567
1138.47
1478.99
1809.01
2112.48
2378.44
2601
2778.27
2911.28
3002.87
3056.79
3076.93
3066.89
3029.61
2967.4
88.3188
253.048
483.812
755.629
1049.32
1346.79
1631.76
1891.43
2117.19
2304.4
2451.66
2559.94
2631.71
2670.17
2678.68
2660.33
2617.78
2553.25
88.3292
243.005
454.029
697.948
956.914
1215.49
1460.46
1681.69
1872.44
2029.08
2150.59
2237.83
2292.92
2318.56
2317.63
2292.84
2246.58
2180.98
87.2093
230.29
421.029
638.24
865.59
1089.79
1300.06
1488.32
1649.31
1780.18
1880.19
1950.12
1991.72
2007.31
1999.33
1970.17
1922.02
1856.92
85.1773
216.091
387.194
579.837
779.286
974.021
1155.1
1316.04
1452.65
1562.69
1645.62
1702.08
1733.58
1742.04
1729.58
1698.32
1650.27
1587.39
82.2906
201.265
354.445
525.587
701.495
872.089
1029.82
1169.33
1287.19
1381.6
1452.09
1499.21
1524.19
1528.66
1514.45
1483.45
1437.5
1378.5
78.4825
186.408
324.321
477.938
635.39
787.73
928.397
1052.79
1157.96
1242.34
1305.47
1347.73
1370.12
1374
1360.96
1332.67
1290.82
1237.16
73.7017
172.118
298.324
439.359
584.343
725.133
855.78
972.108
1071.39
1152.1
1213.65
1256.24
1280.59
1287.82
1279.3
1256.47
1220.87
1174.12
68.408
160.025
279.525
414.525
554.677
692.22
821.447
938.265
1039.88
1124.59
1191.56
1240.7
1272.47
1287.76
1287.68
1273.52
1246.65
1208.53
62.6541
149.716
266.762
401.552
543.843
685.871
821.799
947.276
1059.16
1155.33
1234.57
1296.42
1341.05
1369.06
1381.4
1379.21
1363.73
1336.33
56.2597
139.172
255.507
393.298
542.163
694.052
842.694
983.182
1111.74
1225.62
1323.03
1403.03
1465.41
1510.49
1539.05
1552.1
1550.87
1536.71
49.3887
127.248
242.886
385.05
543.211
708.887
875.147
1036.23
1187.43
1325.08
1446.57
1550.3
1635.54
1702.31
1751.16
1783.07
1799.33
1801.42
42.4149
113.797
227.694
374.369
543.44
726.024
914.362
1101.54
1281.52
1449.33
1601.23
1734.68
1848.3
1941.64
2015.08
2069.57
2106.6
2128.05
35.864
99.2931
209.715
360.141
541.014
743.324
958.381
1177.71
1393.42
1598.72
1788.25
1958.25
2106.4
2231.71
2334.3
2415.2
2476.24
2520.07
30.1823
84.5468
189.393
342.177
535.407
760.58
1008
1267.04
1527.2
1779.1
2015.21
2230.05
2420.15
2583.78
2720.76
2832.22
2920.57
2989.59
25.658
70.5401
167.678
321.104
527.518
780.077
1067.89
1377.31
1694.07
2005.18
2300.05
2570.93
2812.77
3022.98
3201
3348.1
3467.42
3564.4
22.501
58.423
146.035
298.597
520.647
808.613
1150.18
1527.24
1919.94
2309.91
2682.22
3025.95
3334.08
3602.91
3831.53
4021.41
4176.53
4304.49
21.2158
49.7731
126.741
278.689
523.709
864.233
1286
1763.59
2267.91
2772.12
3254.7
3700.32
4099.34
4446.9
4741.83
4986.05
5184.65
5347.71
24.0122
48.044
114.423
273.095
565.56
1005.11
1572.73
2228.02
2924.38
3619.86
4282.19
4889.55
5429.09
5895.04
6286.74
6607.41
6863.93
7069.41
46.2317
69.9888
129.956
344.192
797.859
1518.62
2464.04
3550.44
4688.3
5803.6
6844.56
7779.9
8594.2
9283.16
9849.83
10302.1
10651.7
10916.8
337.332
317.081
426.846
1337.1
3049.66
5536.68
8541.86
11745.4
14883
17781.5
20348
22545.5
24371.8
25844.8
26993.2
27851.2
28457.6
28858.1
20.6294
36.545
57.9661
80.3033
103.047
126.246
149.95
174.179
198.937
224.224
250.035
276.365
303.212
330.573
358.449
386.84
415.747
445.173
475.119
505.585
536.571
568.073
600.085
632.598
665.595
699.058
732.959
767.267
801.938
836.923
872.16
907.579
943.097
978.62
1014.04
1049.25
1084.13
1118.57
1152.45
1185.71
1218.32
1249.27
1277.43
1302.27
1323.22
1339.73
1351.27
1357.36
1357.6
1351.69
1339.48
1320.93
1296.18
1265.52
1229.38
1188.35
1143.1
1094.39
1043.02
989.828
935.591
881.063
826.921
773.756
722.067
672.253
624.623
579.404
536.742
496.712
459.324
424.55
392.311
362.522
335.074
309.865
286.898
265.988
247.285
230.566
216.863
204.84
193.999
184.133
175.116
166.857
159.28
152.32
145.92
140.029
134.6
129.592
124.968
120.694
116.739
113.077
109.681
106.529
103.602
100.88
98.3466
95.9868
93.7868
91.7339
89.8168
88.0251
86.3495
84.7815
83.3134
81.9384
80.6499
79.4424
78.3104
77.2494
76.2549
75.3231
74.4503
73.6332
72.8687
72.1539
71.486
70.8625
70.2809
69.7389
69.2341
68.7643
68.3273
67.9211
67.5436
67.1928
66.8668
66.5639
66.2822
66.0202
65.7765
65.5495
65.338
65.1407
64.9564
64.7839
64.6218
64.4687
64.3232
64.1838
64.0488
63.9165
63.7852
63.653
63.5181
63.379
63.2345
63.084
62.9275
62.7616
62.5833
62.3902
62.1803
61.9524
61.7053
61.4388
61.1529
60.848
60.525
60.1849
59.8278
59.3701
43.9965
33.9165
27.0917
22.3488
18.9845
16.562
14.8014
13.5184
12.5879
11.9217
11.4559
11.1412
10.9413
10.7565
78.5732
67.6726
83.4425
102.262
120.87
138.563
155.264
171.08
186.15
200.604
214.549
228.077
241.264
254.175
266.86
279.363
291.718
303.951
316.081
328.122
340.081
351.962
363.764
375.486
387.12
398.658
410.091
421.409
432.6
443.653
454.557
465.303
475.882
486.289
496.519
506.575
516.46
526.182
535.753
545.187
554.504
563.56
571.749
578.805
584.515
588.672
591.088
591.594
590.055
586.372
580.491
572.405
562.154
549.824
535.55
519.506
501.913
483.017
463.073
442.352
421.131
399.68
378.251
357.069
336.331
316.202
296.816
278.255
260.579
243.825
228.014
213.145
199.206
186.167
173.995
162.624
152.038
142.002
132.911
124.681
117.373
110.809
104.86
99.4368
94.4767
89.9291
85.7522
81.9099
78.3703
75.1054
72.0896
69.3004
66.7171
64.3212
62.0959
60.026
58.0979
56.2989
54.6179
53.0447
51.57
50.1855
48.8836
47.6573
46.5006
45.4077
44.3737
43.394
42.4643
41.581
40.7407
39.9404
39.1773
38.449
37.7533
37.0881
36.4515
35.842
35.258
34.698
34.1608
33.645
33.1496
32.6735
32.2155
31.7749
31.3506
30.9419
30.5479
30.168
29.8015
29.4478
29.1064
28.7769
28.4588
28.1517
27.8553
27.5693
27.2934
27.0273
26.7708
26.5235
26.285
26.0551
25.8333
25.619
25.4119
25.2113
25.0166
24.8272
24.6426
24.4626
24.2879
24.1214
23.9589
23.7989
23.6403
23.4825
23.3249
23.1673
23.0098
22.8525
22.696
22.5416
22.3922
22.2316
21.4081
20.3267
19.1907
18.1006
17.1026
16.2145
15.4399
14.7755
14.2155
13.7795
13.4585
13.2532
13.1979
13.4847
117.97
88.9149
100.404
116.429
132.361
147.222
160.858
173.377
184.956
195.766
205.948
215.621
224.878
233.793
242.426
250.82
259.011
267.027
274.887
282.607
290.2
297.676
305.044
312.312
319.49
326.585
333.607
340.568
347.479
354.353
361.206
368.054
374.915
381.806
388.746
395.752
402.839
410.017
417.286
424.631
432.017
439.29
446.208
452.588
458.254
463.023
466.712
469.145
470.158
469.611
467.389
463.41
457.626
450.028
440.636
429.51
416.792
402.693
387.396
371.099
354.064
336.567
318.869
301.212
283.811
266.856
250.525
234.87
219.94
205.773
192.387
179.781
167.949
156.847
146.483
136.716
127.751
119.508
111.993
105.164
98.9797
93.3656
88.2521
83.5804
79.302
75.3762
71.7677
68.4457
65.383
62.5551
59.9402
57.5185
55.2724
53.1855
51.2434
49.4328
47.7418
46.1594
44.6761
43.2828
41.9716
40.7354
39.5676
38.4623
37.4144
36.4191
35.4721
34.5697
33.7085
32.8853
32.0976
31.3429
30.619
29.924
29.2561
28.6138
27.9957
27.4005
26.827
26.2742
25.741
25.2266
24.7299
24.2503
23.7869
23.339
22.9059
22.4871
22.0819
21.6898
21.3103
20.9432
20.5879
20.2442
19.9119
19.5907
19.2805
18.9811
18.6925
18.4144
18.1468
17.8896
17.6426
17.4055
17.1783
16.9605
16.7519
16.5521
16.3607
16.1773
16.0015
15.833
15.672
15.519
15.3741
15.2357
15.1027
14.9742
14.8495
14.7281
14.6096
14.4941
14.3816
14.2725
14.167
14.0619
13.8968
13.6675
13.3886
13.0795
12.7587
12.4412
12.1388
11.8607
11.6143
11.4091
11.255
11.1675
11.1797
11.3855
152.64
104.255
111.073
124.312
137.948
150.673
162.235
172.712
182.28
191.114
199.363
207.148
214.562
221.678
228.55
235.22
241.72
248.073
254.3
260.418
266.441
272.385
278.264
284.094
289.894
295.68
301.475
307.299
313.176
319.131
325.191
331.382
337.733
344.271
351.025
358.02
365.278
372.817
380.642
388.75
397.119
405.633
414.142
422.492
430.508
437.985
444.703
450.428
454.928
457.978
459.374
458.942
456.555
452.134
445.622
436.841
425.855
412.851
398.089
381.877
364.557
346.476
327.969
309.343
290.87
272.779
255.256
238.429
222.382
207.178
192.843
179.363
166.776
154.933
144.062
134.105
125
116.682
109.102
102.208
95.9411
90.2405
85.0461
80.3049
75.97
72
68.3583
65.0123
61.9332
59.0952
56.475
54.0519
51.807
49.7233
47.7854
45.9796
44.2933
42.7152
41.2352
39.8443
38.5342
37.2976
36.128
35.0194
33.9667
32.9652
32.0107
31.0995
30.2284
29.3946
28.5954
27.8287
27.0925
26.385
25.7047
25.0503
24.4205
23.8141
23.2303
22.6681
22.1266
21.605
21.1026
20.6186
20.1524
19.7032
19.2705
18.8538
18.4525
18.0661
17.6942
17.3365
16.9926
16.6622
16.3453
16.0415
15.7508
15.4729
15.2077
14.955
14.7146
14.4862
14.2695
14.064
13.8694
13.6849
13.5102
13.3446
13.1874
13.0382
12.8963
12.7614
12.6328
12.5116
12.3966
12.287
12.1817
12.0801
11.9817
11.886
11.7928
11.702
11.6136
11.5278
11.4448
11.364
11.2772
11.1782
11.0654
10.9402
10.8066
10.6696
10.5344
10.4066
10.2916
10.196
10.1282
10.1007
10.1349
10.2749
180.872
115.397
117.463
127.897
139.448
150.419
160.415
169.458
177.701
185.311
192.435
199.191
205.668
211.933
218.035
224.009
229.882
235.672
241.396
247.067
252.699
258.307
263.906
269.513
275.147
280.831
286.588
292.443
298.424
304.562
310.888
317.436
324.239
331.335
338.759
346.547
354.735
363.352
372.422
381.959
391.962
402.375
413.107
424.031
434.975
445.716
455.99
465.494
473.906
480.894
486.137
489.348
490.292
488.818
484.536
477.256
467.032
454.075
438.707
421.324
402.365
382.276
361.49
340.406
319.378
298.697
278.601
259.282
240.841
223.386
206.973
191.466
177.201
164.053
152.002
140.988
130.945
121.798
113.48
105.933
99.0838
92.859
87.1953
82.0364
77.3315
73.0341
69.1028
65.5006
62.1948
59.1559
56.3576
53.7761
51.3901
49.1802
47.1291
45.2211
43.4421
41.7795
40.2221
38.7596
37.3831
36.0845
34.8566
33.693
32.588
31.5368
30.5348
29.5782
28.6636
27.7882
26.9492
26.1445
25.3722
24.6305
23.9181
23.2337
22.5762
21.9445
21.3378
20.7552
20.196
19.6595
19.145
18.6518
18.1792
17.7266
17.2935
16.8792
16.4832
16.1051
15.7444
15.4006
15.0735
14.7628
14.4681
14.1892
13.9258
13.6776
13.4442
13.225
13.0196
12.8272
12.6473
12.4789
12.3212
12.1734
12.0346
11.9039
11.7805
11.6638
11.553
11.4475
11.3472
11.2518
11.1605
11.0725
10.9872
10.9042
10.8231
10.7438
10.666
10.5898
10.5152
10.4426
10.3721
10.3038
10.2364
10.1682
10.0978
10.025
9.9505
9.87584
9.80328
9.73562
9.67626
9.62948
9.60112
9.59973
9.63859
9.73967
201.849
123.047
120.672
128.343
137.925
147.364
156.1
164.074
171.399
178.224
184.687
190.899
196.943
202.881
208.753
214.587
220.402
226.209
232.017
237.832
243.662
249.515
255.401
261.335
267.329
273.404
279.58
285.881
292.334
298.969
305.819
312.921
320.314
328.043
336.152
344.692
353.712
363.264
373.394
384.143
395.539
407.606
420.331
433.643
447.405
461.4
475.338
488.851
501.515
512.865
522.429
529.761
534.476
536.292
534.575
529.052
519.74
506.867
490.812
472.06
451.16
428.679
405.159
381.105
356.988
333.168
309.925
287.59
266.196
245.94
227.104
209.606
193.469
178.643
165.072
152.682
141.393
131.122
121.789
113.315
105.622
98.6375
92.2917
86.5256
81.281
76.5021
72.141
68.1555
64.5076
61.1631
58.0918
55.2659
52.6606
50.2537
48.0248
45.956
44.031
42.2353
40.556
38.9814
37.5013
36.1065
34.7889
33.5413
32.3574
31.2316
30.159
29.1354
28.1572
27.2211
26.3245
25.465
24.6408
23.85
23.0914
22.3638
21.6661
20.9974
20.357
19.7441
19.1581
18.5984
18.0642
17.5551
17.0702
16.6091
16.171
15.7555
15.3618
14.9894
14.6378
14.3065
13.995
13.7029
13.4296
13.1748
12.9377
12.7178
12.5142
12.3263
12.1528
11.9928
11.8451
11.7086
11.582
11.4642
11.3541
11.2508
11.1532
11.0607
10.9726
10.8883
10.8075
10.7296
10.6538
10.5799
10.5073
10.4358
10.3653
10.2956
10.2268
10.159
10.0924
10.0273
9.9638
9.90238
9.84299
9.78538
9.72925
9.67451
9.62144
9.57073
9.5235
9.48135
9.44639
9.42147
9.4106
9.41951
9.45634
9.53311
215.59
127.618
121.383
126.441
134.154
142.202
149.87
157.006
163.667
169.974
176.051
181.999
187.894
193.79
199.721
205.704
211.751
217.861
224.034
230.267
236.557
242.901
249.302
255.761
262.284
268.881
275.563
282.345
289.248
296.296
303.518
310.949
318.63
326.609
334.942
343.692
352.931
362.736
373.186
384.362
396.341
409.237
423.166
438.162
454.175
471.051
488.515
506.156
523.44
539.735
554.366
566.672
576.06
582.072
583.812
580.859
573.168
560.968
544.694
524.92
502.312
477.588
451.41
424.364
397.128
370.132
343.525
318.133
294.047
271.379
250.234
230.625
212.536
195.921
180.71
166.823
154.171
142.661
132.203
122.708
114.089
106.266
99.1615
92.7077
86.8399
81.4994
76.6341
72.1984
68.1469
64.4409
61.0452
57.928
55.0607
52.4174
49.9748
47.7122
45.6109
43.6542
41.8274
40.117
38.5115
37.0002
35.574
34.2246
32.945
31.7287
30.5704
29.4653
28.4094
27.3991
26.4317
25.5045
24.6156
23.7634
22.9465
22.1637
21.4142
20.6972
20.0121
19.3583
18.7354
18.1426
17.5796
17.0457
16.5404
16.063
15.6128
15.1892
14.7914
14.4188
14.0707
13.7463
13.445
13.166
12.9087
12.6721
12.4554
12.2575
12.0772
11.9133
11.7643
11.6287
11.5051
11.392
11.2879
11.1915
11.1017
11.0172
10.9373
10.8611
10.7881
10.7176
10.6491
10.5821
10.5159
10.4504
10.3854
10.3206
10.2562
10.192
10.1283
10.0652
10.003
9.94196
9.88246
9.82487
9.7695
9.71658
9.66628
9.61879
9.57444
9.53372
9.49736
9.46641
9.4423
9.42702
9.42333
9.43511
9.46736
9.5274
222.619
129.451
120.082
122.773
128.734
135.494
142.213
148.646
154.789
160.729
166.566
172.391
178.27
184.25
190.356
196.598
202.976
209.48
216.099
222.817
229.62
236.494
243.424
250.401
257.416
264.461
271.533
278.633
285.764
292.936
300.163
307.471
314.892
322.473
330.272
338.366
346.848
355.83
365.442
375.827
387.139
399.595
413.502
429.065
446.401
465.498
486.168
507.998
530.338
552.336
573.03
591.454
606.737
618.188
624.575
625.3
620.232
609.588
593.869
573.739
549.955
523.471
495.084
465.277
435.219
405.517
376.53
348.679
322.209
297.282
273.992
252.371
232.406
214.052
197.237
181.877
167.877
155.138
143.56
133.046
123.503
114.84
106.975
99.8312
93.338
87.4308
82.0514
77.1475
72.6724
68.5859
64.8479
61.4223
58.2763
55.3808
52.7094
50.2385
47.9473
45.8167
43.8301
41.9724
40.2303
38.592
37.047
35.5861
34.2011
32.8849
31.6314
30.4353
29.292
28.1978
27.1494
26.1442
25.1802
24.2557
23.3693
22.5202
21.7074
20.9306
20.1891
19.4828
18.8113
18.1741
17.571
17.0014
16.4649
15.9609
15.4885
15.0471
14.6359
14.2539
13.9003
13.5741
13.2743
12.9999
12.7498
12.5228
12.3176
12.1328
11.9668
11.8178
11.6842
11.5641
11.4558
11.3574
11.2675
11.1846
11.1073
11.0346
10.9655
10.8993
10.8354
10.773
10.7116
10.6507
10.5899
10.529
10.468
10.4067
10.3454
10.284
10.2228
10.1621
10.1021
10.0431
9.98568
9.93008
9.87676
9.8261
9.77845
9.73414
9.69356
9.65717
9.62554
9.59947
9.57999
9.56853
9.56707
9.57822
9.60511
9.65273
223.792
128.887
117.152
117.792
122.147
127.707
133.549
139.349
145.045
150.681
156.335
162.081
167.976
174.056
180.338
186.823
193.502
200.356
207.362
214.494
221.725
229.027
236.372
243.733
251.084
258.399
265.653
272.825
279.893
286.841
293.66
300.348
306.914
313.386
319.81
326.263
332.852
339.73
347.092
355.184
364.29
374.758
387.14
401.889
419.38
439.85
463.291
489.345
517.235
545.805
573.674
599.445
621.885
639.986
652.176
657.675
656.248
648.08
633.785
614.129
589.783
562.199
532.398
501.188
469.439
437.832
406.894
377.046
348.587
321.72
296.562
273.166
251.531
231.616
213.355
196.661
181.435
167.572
154.968
143.518
133.122
123.683
115.112
107.327
100.251
93.8133
87.9516
82.6086
77.7331
73.2804
69.2112
65.4855
62.0671
58.9236
56.0263
53.349
50.8687
48.5645
46.4178
44.412
42.5323
40.7655
39.0998
37.5251
36.032
34.6128
33.2604
31.969
30.7336
29.5499
28.4144
27.3243
26.2774
25.2721
24.3071
23.3815
22.4949
21.6469
20.8374
20.0663
19.3336
18.6392
17.9831
17.3649
16.7843
16.2408
15.7337
15.2622
14.8254
14.4222
14.0515
13.712
13.4026
13.1218
12.8682
12.6403
12.4362
12.2543
12.0925
11.9489
11.8214
11.7079
11.6063
11.5148
11.4315
11.355
11.2837
11.2167
11.1529
11.0916
11.032
10.9734
10.9152
10.8569
10.7982
10.7392
10.6796
10.6196
10.5592
10.4987
10.4383
10.3783
10.319
10.2607
10.204
10.1492
10.0967
10.047
10.0005
9.95752
9.91851
9.8839
9.8542
9.83001
9.81216
9.80169
9.80004
9.80899
9.83047
9.86838
220.114
126.297
112.929
111.872
114.798
119.25
124.267
129.467
134.737
140.085
145.559
151.215
157.095
163.224
169.609
176.244
183.11
190.183
197.429
204.815
212.301
219.848
227.415
234.96
242.439
249.806
257.016
264.02
270.771
277.221
283.325
289.044
294.349
299.223
303.675
307.75
311.544
315.222
319.052
323.418
328.821
335.849
345.288
357.904
374.427
395.448
421.238
451.541
485.422
521.299
557.199
591.146
621.478
646.809
665.357
676.225
679.059
673.956
661.74
643.392
619.952
592.626
562.529
530.661
497.928
465.094
432.773
401.447
371.47
343.086
316.445
291.621
268.63
247.44
227.988
210.189
193.942
179.141
165.675
153.436
142.317
132.219
123.046
114.71
107.132
100.236
93.9558
88.2301
83.0042
78.2301
73.8659
69.8706
66.2058
62.8369
59.7329
56.8659
54.2112
51.7461
49.4506
47.3067
45.2982
43.4107
41.6314
39.9487
38.3528
36.8347
35.3868
34.0025
32.6762
31.4033
30.1798
29.0028
27.8698
26.7791
25.7297
24.7207
23.752
22.8234
21.9352
21.0878
20.2816
19.5168
18.7939
18.1128
17.4737
16.8761
16.3196
15.8035
15.3267
14.8882
14.4867
14.1207
13.7886
13.4887
13.2193
12.9784
12.7641
12.5741
12.4061
12.2579
12.1271
12.0113
11.9083
11.816
11.7324
11.6558
11.5847
11.518
11.4546
11.3938
11.3345
11.2759
11.2176
11.1591
11.1001
11.0405
10.9804
10.9197
10.8587
10.7976
10.7366
10.676
10.6162
10.5577
10.5007
10.4458
10.3933
10.3436
10.2973
10.2546
10.216
10.1819
10.1526
10.1288
10.111
10.1001
10.097
10.1031
10.1194
10.1494
212.344
122.05
107.729
105.354
107.063
110.521
114.771
119.401
124.262
129.323
134.604
140.134
145.937
152.026
158.399
165.044
171.937
179.047
186.338
193.769
201.293
208.864
216.429
223.935
231.323
238.534
245.502
252.16
258.437
264.258
269.548
274.232
278.238
281.505
283.989
285.678
286.612
286.922
286.885
286.997
288.021
291.003
296.898
306.787
321.814
342.995
370.927
405.441
445.356
488.524
532.245
573.89
611.529
643.116
667.164
682.771
689.623
687.972
678.526
662.264
640.317
613.896
584.189
552.299
519.21
485.765
452.652
420.414
389.455
360.057
332.402
306.586
282.638
260.538
240.228
221.626
204.631
189.137
175.03
162.199
150.536
139.936
130.302
121.544
113.576
106.323
99.7136
93.6854
88.1808
83.1492
78.546
74.3301
70.4618
66.9053
63.6283
60.6018
57.7996
55.1981
52.7761
50.5144
48.3958
46.4049
44.5277
42.752
41.0667
39.4623
37.9302
36.4632
35.0551
33.7005
32.3954
31.1361
29.9203
28.746
27.612
26.5178
25.4632
24.4486
23.4746
22.542
21.6518
20.8048
20.002
19.244
18.5313
17.8642
17.2424
16.6655
16.1327
15.643
15.195
14.7871
14.4176
14.0844
13.7855
13.5186
13.2814
13.0715
12.8861
12.7228
12.5789
12.4518
12.3389
12.2381
12.1471
12.064
11.9874
11.9158
11.848
11.7833
11.7205
11.6587
11.5973
11.5359
11.4742
11.4121
11.3495
11.2865
11.2234
11.1603
11.0974
11.0352
10.974
10.9141
10.856
10.8001
10.7468
10.6965
10.6496
10.6064
10.5674
10.5329
10.5032
10.4788
10.4601
10.4478
10.4426
10.4454
10.4567
10.4799
200.23
116.477
101.896
98.6315
99.4017
102.035
105.627
109.768
114.266
119.051
124.108
129.445
135.073
140.994
147.203
153.685
160.415
167.362
174.485
181.741
189.081
196.451
203.794
211.049
218.15
225.028
231.606
237.807
243.545
248.732
253.277
257.086
260.07
262.142
263.227
263.281
262.31
260.402
257.805
255.033
252.992
253.22
256.84
265.214
279.836
302.061
332.669
371.38
416.58
465.492
514.772
561.241
602.457
637.001
664.123
682.738
692.42
693.331
686.09
671.64
651.112
625.728
596.708
565.204
532.249
498.736
465.402
432.829
401.457
371.598
343.454
317.138
292.693
270.107
249.328
230.277
212.856
196.96
182.475
169.289
157.294
146.384
136.461
127.432
119.213
111.726
104.898
98.6668
92.9726
87.7633
82.9923
78.6186
74.603
70.9093
67.5047
64.3597
61.4476
58.744
56.2271
53.8771
51.6758
49.6072
47.6566
45.8108
44.0581
42.388
40.7913
39.26
37.7872
36.3671
34.9948
33.6665
32.3793
31.131
29.9202
28.7464
27.6096
26.5102
25.4493
24.428
23.448
22.5108
21.618
20.7711
19.9713
19.2196
18.5166
17.8622
17.2563
16.6981
16.1864
15.7197
15.2962
14.9137
14.57
14.2625
13.9886
13.7456
13.5305
13.3406
13.1728
13.0244
12.8927
12.775
12.669
12.5727
12.4843
12.4022
12.3251
12.2521
12.1818
12.1132
12.0457
11.9786
11.9117
11.8448
11.7779
11.7109
11.6441
11.5776
11.5116
11.4466
11.3828
11.3207
11.2605
11.2028
11.1478
11.096
11.0478
11.0033
10.9631
10.9273
10.8964
10.8705
10.8501
10.8357
10.8277
10.8268
10.8332
10.8501
184.842
110.575
96.6328
93.0145
93.1886
95.2042
98.2195
101.838
105.874
110.247
114.929
119.914
125.2
130.783
136.651
142.788
149.166
155.753
162.509
169.389
176.342
183.314
190.244
197.068
203.718
210.12
216.195
221.862
227.032
231.615
235.52
238.654
240.931
242.274
242.625
241.96
240.314
237.821
234.795
231.835
229.952
230.695
235.411
245.645
262.994
288.748
323.398
366.168
414.909
466.464
517.355
564.456
605.445
639.03
665.076
683.086
692.606
693.714
686.92
673.06
653.181
628.441
600.017
569.035
536.521
503.366
470.312
437.95
406.729
376.969
348.883
322.592
298.142
275.529
254.705
235.594
218.103
202.126
187.554
174.277
162.187
151.18
141.159
132.033
123.718
116.135
109.215
102.893
97.1104
91.8155
86.9607
82.5038
78.4066
74.6354
71.1574
67.9433
64.9664
62.2025
59.6295
57.2273
54.9776
52.8638
50.8706
48.9844
47.1927
45.4844
43.8497
42.2798
40.7672
39.3052
37.8886
36.5127
35.1742
33.8705
32.5998
31.3614
30.155
28.9812
27.841
26.7361
25.6684
24.6401
23.6536
22.7111
21.8149
20.967
20.1689
19.4216
18.7258
18.0815
17.488
16.9442
16.4486
15.9991
15.5933
15.2288
14.9025
14.6115
14.3528
14.1232
13.9195
13.7387
13.5777
13.4338
13.3044
13.187
13.0798
12.9809
12.8888
12.8024
12.7201
12.6407
12.5634
12.4876
12.4127
12.3385
12.265
12.192
12.1196
12.048
11.9775
11.9082
11.8406
11.775
11.7116
11.6509
11.5933
11.539
11.4884
11.4417
11.3993
11.3614
11.3281
11.2998
11.2768
11.2593
11.2478
11.2425
11.2436
11.2541
166.981
104.508
91.9378
88.384
88.2454
89.8235
92.3735
95.532
99.1197
103.053
107.299
111.843
116.682
121.806
127.206
132.861
138.746
144.829
151.072
157.43
163.854
170.289
176.678
182.957
189.058
194.911
200.439
205.566
210.21
214.29
217.727
220.447
222.387
223.502
223.778
223.246
222.013
220.319
218.625
217.707
218.906
223.599
233.305
249.641
274.023
307.195
348.722
396.765
448.352
500.047
548.658
591.688
627.511
655.397
675.536
688.489
694.007
692.15
683.322
668.205
647.686
622.775
594.518
563.938
531.977
499.463
467.091
435.418
404.87
375.75
348.26
322.515
298.561
276.39
255.958
237.19
219.997
204.277
189.924
176.832
164.897
154.018
144.103
135.062
126.815
119.286
112.407
106.116
100.355
95.0739
90.2263
85.7706
81.669
77.8877
74.396
71.1672
68.1759
65.398
62.8123
60.3987
58.139
56.0166
54.0161
52.1233
50.3256
48.6112
46.9698
45.392
43.8695
42.3952
40.963
39.5677
38.2052
36.8725
35.5671
34.2878
33.034
31.8059
30.6045
29.4314
28.2886
27.1786
26.1044
25.069
24.0755
23.1269
22.226
21.3752
20.5762
19.8302
19.1379
18.4989
17.9124
17.377
16.8905
16.4505
16.0542
15.6986
15.3803
15.0961
14.8426
14.6164
14.4143
14.2333
14.0703
13.9228
13.7885
13.6653
13.5514
13.4455
13.3457
13.2507
13.1593
13.0708
12.9845
12.8999
12.8169
12.7353
12.6551
12.5764
12.4993
12.424
12.3509
12.2801
12.212
12.147
12.0852
12.0271
11.9728
11.9226
11.8767
11.8352
11.7984
11.7664
11.7395
11.7177
11.7014
11.6907
11.6856
11.6891
148.447
98.3441
87.6373
84.4762
84.2621
85.5744
87.7828
90.5703
93.7733
97.3104
101.144
105.257
109.642
114.291
119.194
124.332
129.684
135.221
140.908
146.704
152.564
158.439
164.273
170.01
175.588
180.942
186.008
190.717
195.006
198.811
202.076
204.758
206.833
208.307
209.229
209.722
210.02
210.558
212.111
215.959
223.489
236.172
255.564
282.993
319.082
363.237
413.414
466.404
518.573
566.678
608.377
642.321
667.998
685.547
695.652
699.547
697.525
689.695
676.373
658.082
635.509
609.459
580.785
550.338
518.91
487.208
455.827
425.246
395.832
367.844
341.451
316.748
293.767
272.493
252.877
234.848
218.317
203.186
189.356
176.725
165.196
154.673
145.068
136.299
128.287
120.963
114.263
108.126
102.501
97.3368
92.591
88.2234
84.1981
80.4825
77.0473
73.8658
70.9142
68.171
65.6184
63.2364
61.0074
58.9152
56.9445
55.0812
53.3123
51.626
50.0113
48.4586
46.9589
45.5045
44.0887
42.7058
41.3508
40.02
38.7106
37.4204
36.1484
34.8944
33.6586
32.4424
31.2477
30.0768
28.9327
27.8189
26.739
25.6967
24.6959
23.7403
22.833
21.9768
21.1737
20.425
19.7312
19.0919
18.506
17.9717
17.4865
17.0478
16.6523
16.2966
15.9773
15.6909
15.4338
15.2027
14.9944
14.8059
14.6345
14.4779
14.334
14.201
14.077
13.9602
13.8493
13.7431
13.6409
13.542
13.4459
13.3524
13.2613
13.1726
13.0863
13.0026
12.9216
12.8436
12.7688
12.6974
12.6296
12.5657
12.5059
12.4503
12.3991
12.3524
12.3102
12.2728
12.2402
12.2124
12.1897
12.172
12.1593
12.1546
130.646
92.1797
83.6415
81.1375
81.058
82.2742
84.2789
86.8107
89.7298
92.9629
96.4736
100.245
104.267
108.534
113.037
117.762
122.691
127.8
133.06
138.436
143.89
149.379
154.857
160.275
165.582
170.728
175.662
180.337
184.709
188.746
192.428
195.757
198.769
201.546
204.251
207.166
210.79
216.025
224.431
237.46
256.529
283.041
317.986
361.456
412.195
467.496
523.605
576.549
623.022
660.941
689.495
708.839
719.696
723.074
720.159
712.361
700.498
684.705
665.215
642.392
616.725
588.798
559.246
528.71
497.795
467.044
436.913
407.77
379.891
353.467
328.618
305.401
283.824
263.86
245.451
228.524
212.992
198.762
185.741
173.832
162.946
152.996
143.899
135.579
127.967
120.997
114.611
108.753
103.375
98.4321
93.8835
89.6923
85.8252
82.2517
78.9443
75.8782
73.0305
70.381
67.9113
65.6048
63.4482
61.4258
59.5228
57.7254
56.0207
54.3968
52.8427
51.3481
49.904
48.5022
47.1352
45.7968
44.4816
43.1852
41.9039
40.6353
39.3775
38.1295
36.8913
35.6634
34.4472
33.2447
32.0585
30.8918
29.7484
28.6323
27.5477
26.4993
25.4913
24.5278
23.6127
22.7488
21.9385
21.1831
20.483
19.8378
19.2462
18.7062
18.2152
17.7702
17.3678
17.0045
16.6767
16.3808
16.1133
15.871
15.6507
15.4497
15.2656
15.0963
14.9396
14.7934
14.6559
14.5258
14.4019
14.2834
14.1694
14.0596
13.9536
13.8513
13.7524
13.657
13.5651
13.4769
13.3925
13.312
13.2356
13.1635
13.0956
13.0322
12.9733
12.9189
12.8691
12.8238
12.7832
12.7472
12.7159
12.6892
12.667
12.6522
114.369
86.1275
79.9123
78.2898
78.5549
79.8655
81.8416
84.2848
87.0879
90.1946
93.5775
97.2245
101.131
105.294
109.709
114.366
119.253
124.351
129.637
135.084
140.66
146.333
152.067
157.827
163.579
169.289
174.933
180.491
185.959
191.348
196.699
202.092
207.671
213.674
220.503
228.838
239.929
255.965
278.558
308.679
347.261
394.459
449.237
509.144
570.491
628.957
680.464
721.996
752.067
770.687
778.94
778.421
770.797
757.599
740.204
719.927
697.636
673.389
647.303
619.585
590.541
560.551
530.04
499.439
469.16
439.564
410.957
383.572
357.582
333.094
310.165
288.808
269.001
250.696
233.826
218.313
204.073
191.016
179.053
168.1
158.071
148.89
140.483
132.781
125.722
119.247
113.305
107.846
102.827
98.2076
93.9515
90.0254
86.3992
83.0454
79.939
77.0571
74.3788
71.8852
69.559
67.3845
65.3477
63.4358
61.6391
59.9443
58.3389
56.8115
55.351
53.9471
52.5903
51.2723
49.9852
48.7223
47.4777
46.2466
45.0247
43.8089
42.5968
41.387
40.1786
38.9716
37.7668
36.5655
35.3698
34.1824
33.0064
31.8459
30.7049
29.5881
28.5005
27.4469
26.4323
25.4612
24.5375
23.6647
22.8451
22.0801
21.3703
20.7151
20.1132
19.5624
19.0602
18.6033
18.1884
17.8118
17.47
17.1594
16.8767
16.6185
16.3823
16.1654
15.9655
15.7802
15.6075
15.4454
15.2926
15.1477
15.0098
14.878
14.7519
14.6309
14.5148
14.4034
14.2966
14.1944
14.0967
14.0036
13.9151
13.8313
13.7521
13.6777
13.6078
13.5427
13.4821
13.426
13.3745
13.3275
13.2848
13.2464
13.212
13.1847
100.111
80.1991
76.3384
75.8168
76.6812
78.354
80.586
83.2544
86.2971
89.6875
93.4195
97.497
101.927
106.717
111.868
117.376
123.23
129.416
135.915
142.707
149.768
157.076
164.61
172.354
180.298
188.441
196.797
205.402
214.32
223.657
233.582
244.365
256.429
270.463
287.623
309.758
340.523
380.018
428.053
484.293
547.264
614.233
681.375
744.261
798.581
840.906
869.282
883.459
884.696
875.225
857.598
834.163
806.813
776.985
745.805
714.298
682.749
651.076
619.254
587.346
555.5
523.928
492.873
462.585
433.295
405.199
378.451
353.158
329.385
307.156
286.464
267.273
249.531
233.169
218.109
204.268
191.563
179.908
169.222
159.427
150.447
142.215
134.664
127.737
121.377
115.535
110.166
105.226
100.678
96.4882
92.6235
89.0555
85.7577
82.7062
79.8786
77.2547
74.8159
72.5449