/*--------------------------------*- C++ -*----------------------------------*\
| =========                 |                                                 |
| \\      /  F ield         | OpenFOAM: The Open Source CFD Toolbox           |
|  \\    /   O peration     | Version:  1.4.2                                 |
|   \\  /    A nd           | Web:      http://www.openfoam.org               |
|    \\/     M anipulation  |                                                 |
\*---------------------------------------------------------------------------*/
FoamFile
{
    version     2.0;
    format      ascii;
    class       volScalarField;
    object      k;
    location    "100";
}
// * * * * * * * * * * * * * * * * * * * * * * * * * * * * * * * * * * * * * //

dimensions      [0 2 -2 0 0 0 0];

internalField   nonuniform List<scalar> 
12225
(
0.327301
0.389964
0.721165
1.76666
2.79389
3.70691
4.47687
5.10708
5.61301
6.01266
6.32272
6.55759
6.72944
6.84825
6.92223
6.95992
6.96749
6.99778
0.431337
0.829384
1.73596
3.02386
4.40848
5.71464
6.86215
7.82836
8.61874
9.24999
9.7417
10.1129
10.3803
10.5585
10.6613
10.7022
10.6958
10.6691
0.504588
1.15218
2.38055
3.93977
5.56018
7.07434
8.40483
9.52886
10.4514
11.1897
11.7644
12.1964
12.5043
12.7056
12.8163
12.8521
12.8297
12.7733
0.586492
1.45626
2.93262
4.69376
6.47529
8.12415
9.5702
10.7929
11.7978
12.6021
13.2273
13.6947
14.0246
14.236
14.3463
14.3724
14.3323
14.2496
0.689547
1.7792
3.46609
5.37992
7.27546
9.01626
10.5399
11.8285
12.8879
13.7353
14.3922
14.8805
15.2214
15.4347
15.5391
15.5522
15.4928
15.3839
0.816165
2.12423
3.99056
6.02211
7.99993
9.80414
11.38
12.7121
13.807
14.6816
15.3573
15.8563
16.2004
16.41
16.5044
16.5021
16.4221
16.2864
0.9666
2.48577
4.50271
6.62619
8.66365
10.5106
12.1199
13.479
14.595
15.4849
16.1696
16.6716
17.013
17.2146
17.2962
17.2768
17.1754
17.013
1.1079
2.78789
4.90607
7.08817
9.16032
11.0299
12.6556
14.0275
15.1531
16.0491
16.7365
17.2374
17.5742
17.7679
17.8386
17.8054
17.6873
17.5044
1.20902
2.98596
5.16123
7.37611
9.46799
11.352
12.9902
14.3737
15.5098
16.4146
17.1085
17.6136
17.952
18.1447
18.2122
18.1734
18.0474
17.8534
1.29333
3.13178
5.33812
7.57029
9.67331
11.5677
13.2176
14.6139
15.7631
16.6804
17.3855
17.8998
18.245
18.4424
18.5122
18.4737
18.3454
18.1464
1.36526
3.23601
5.45006
7.685
9.79076
11.6911
13.3506
14.7596
15.9232
16.8554
17.5747
18.1018
18.458
18.6643
18.7409
18.707
18.5811
18.3818
1.42814
3.30773
5.50902
7.73291
9.8329
11.7339
13.4002
14.8206
15.9986
16.9467
17.682
18.2243
18.5943
18.8126
18.8992
18.8732
18.7531
18.5572
1.4835
3.35328
5.52484
7.725
9.81061
11.7064
13.3756
14.8051
15.9965
16.9604
17.7124
18.2713
18.657
18.8895
18.9884
18.9729
18.8611
18.6715
1.52978
3.37445
5.50319
7.66884
9.73192
11.6166
13.2842
14.7198
15.9227
16.9016
17.6705
18.2468
18.6495
18.8979
19.0113
19.0084
18.9075
18.7266
1.56109
3.36703
5.4437
7.56681
9.60057
11.4685
13.1304
14.5689
15.7813
16.7743
17.56
18.1546
18.5757
18.8419
18.9721
18.9845
18.8972
18.7281
1.56696
3.32088
5.33976
7.41564
9.41557
11.2627
12.9154
14.3543
15.5747
16.581
17.384
17.9981
18.4397
18.7265
18.8766
18.9079
18.838
18.6844
1.53473
3.22377
5.18277
7.21044
9.17503
10.9994
12.6408
14.0783
15.3056
16.3254
17.1465
17.7818
18.2466
18.5575
18.7317
18.7864
18.7386
18.6053
1.45888
3.07605
4.97981
6.96454
8.89726
10.7002
12.3301
13.7654
14.9984
16.0305
16.8692
17.526
18.015
18.3517
18.5523
18.6333
18.611
18.502
1.34337
2.87951
4.72868
6.67434
8.57919
10.3638
11.9841
13.4179
14.6566
15.7007
16.5565
17.2343
17.7471
18.1097
18.3374
18.4459
18.4511
18.369
1.20123
2.63663
4.41899
6.32069
8.19656
9.96336
11.5752
13.0087
14.254
15.3105
16.1835
16.8823
17.419
17.8076
18.0628
18.1998
18.2342
18.1821
1.04756
2.35611
4.05203
5.89829
7.73901
9.48493
11.0869
12.5193
13.7706
14.8388
15.728
16.4468
17.0064
17.4202
17.7023
17.868
17.9329
17.9131
0.895899
2.05372
3.64111
5.41655
7.2122
8.93096
10.5188
11.9468
13.201
14.2778
15.1801
15.9156
16.495
16.9312
17.2382
17.431
17.5255
17.5386
0.758733
1.74767
3.2035
4.88977
6.6274
8.30989
9.87664
11.2941
12.5454
13.625
14.5347
15.2815
15.8757
16.3296
16.6573
16.8738
16.9954
17.0397
0.644032
1.45482
2.75673
4.3333
5.99731
7.63164
9.16743
10.5654
11.8052
12.8793
13.7884
14.539
15.1409
15.6064
15.9492
16.1843
16.3282
16.3998
0.554537
1.18854
2.31682
3.76191
5.33365
6.90473
8.39643
9.7628
10.9797
12.0374
12.9358
13.6807
14.2819
14.7512
15.1021
15.3495
15.5097
15.6026
0.488664
0.957716
1.89782
3.18755
4.64493
6.13353
7.56396
8.88299
10.0622
11.09
11.965
12.6928
13.2828
13.7468
14.0977
14.3498
14.5193
14.6263
0.442062
0.765757
1.50936
2.61758
3.9334
5.31415
6.66019
7.91062
9.03269
10.0125
10.8479
11.5441
12.1103
12.5578
12.899
13.1475
13.3184
13.4313
0.409133
0.610326
1.14976
2.04681
3.18398
4.42018
5.64758
6.79801
7.83436
8.74056
9.51369
10.1584
10.6836
11.1001
11.4196
11.6544
11.8182
11.9285
0.381609
0.471656
0.787131
1.42765
2.32568
3.35461
4.40343
5.39833
6.2985
7.08614
7.75762
8.31724
8.77324
9.13561
9.41494
9.62192
9.76777
9.86652
0.331674
0.313702
0.366396
0.769646
1.34003
2.01567
2.72006
3.39402
4.00332
4.53356
4.98257
5.35462
5.65676
5.89689
6.08286
6.22214
6.32195
6.38997
0.0906498
0.139111
0.18954
0.235838
0.278736
0.319339
0.358317
0.396073
0.432871
0.468891
0.504269
0.539108
0.573489
0.607481
0.641141
0.674517
0.707651
0.74058
0.773334
0.80594
0.838417
0.870782
0.903047
0.935215
0.967289
0.999264
1.03113
1.06286
1.09445
1.12585
1.15703
1.18795
1.21854
1.24876
1.27854
1.30779
1.33646
1.36447
1.39175
1.41826
1.444
1.46852
1.49077
1.51038
1.52699
1.54022
1.5497
1.5551
1.55612
1.5525
1.54409
1.53078
1.5126
1.48964
1.4621
1.43028
1.39456
1.35538
1.31326
1.26873
1.22235
1.17466
1.12619
1.07744
1.02886
0.980833
0.933713
0.887792
0.843305
0.800433
0.759305
0.720009
0.682589
0.647069
0.613462
0.581743
0.552063
0.524267
0.498728
0.4753
0.455439
0.437823
0.421689
0.406754
0.392872
0.379945
0.367895
0.356655
0.346164
0.336366
0.327212
0.318653
0.310647
0.303152
0.296134
0.289556
0.283388
0.2776
0.272165
0.267058
0.262257
0.257739
0.253486
0.24948
0.245703
0.242142
0.238781
0.235607
0.23261
0.229778
0.227101
0.22457
0.222177
0.219915
0.217776
0.215754
0.213843
0.212037
0.210332
0.208723
0.207204
0.205772
0.204423
0.203151
0.201954
0.200828
0.199767
0.198768
0.197828
0.196943
0.196108
0.195321
0.194577
0.193874
0.193208
0.192577
0.191977
0.191405
0.190861
0.190339
0.189839
0.189358
0.188892
0.188438
0.187994
0.187557
0.187121
0.186685
0.186245
0.185797
0.185337
0.184865
0.184378
0.183877
0.183354
0.182805
0.182225
0.18161
0.180958
0.180267
0.179537
0.178767
0.177958
0.177113
0.17623
0.175144
0.143254
0.120277
0.103389
0.0907841
0.0812726
0.0740474
0.0685472
0.0643721
0.0612305
0.0588998
0.0572073
0.0560097
0.0551957
0.0544371
0.139951
0.264698
0.342058
0.405183
0.460898
0.511759
0.559098
0.603883
0.646841
0.688506
0.72927
0.769426
0.8092
0.848771
0.888281
0.92785
0.967576
1.00755
1.04784
1.08852
1.12965
1.17131
1.21353
1.2564
1.29995
1.34424
1.38932
1.43525
1.48207
1.52981
1.57852
1.62822
1.67893
1.73064
1.78334
1.83698
1.89151
1.94682
2.00276
2.05912
2.11565
2.17164
2.22668
2.28017
2.3314
2.37949
2.4235
2.4624
2.49512
2.52062
2.53791
2.54617
2.54474
2.53324
2.51154
2.47979
2.43843
2.38814
2.32982
2.26452
2.19341
2.11769
2.03859
1.95727
1.87481
1.79218
1.71024
1.62972
1.55123
1.47524
1.4021
1.33207
1.26531
1.2019
1.14195
1.08537
1.03243
0.982399
0.937182
0.896066
0.858607
0.824112
0.792141
0.762411
0.734722
0.708909
0.684827
0.662342
0.64133
0.621675
0.603268
0.586008
0.569798
0.554553
0.540189
0.526633
0.513814
0.501671
0.490145
0.479183
0.468737
0.458762
0.449218
0.440069
0.431281
0.422825
0.414673
0.406802
0.399189
0.391815
0.384664
0.37772
0.37097
0.364402
0.358005
0.351772
0.345692
0.33976
0.333969
0.328313
0.322785
0.317382
0.312099
0.30693
0.301873
0.296923
0.292076
0.287331
0.282684
0.278135
0.273681
0.269323
0.265061
0.260895
0.256828
0.252861
0.248996
0.245237
0.241586
0.238044
0.234612
0.231293
0.228084
0.224985
0.221992
0.219102
0.216311
0.213612
0.210998
0.208462
0.205997
0.203591
0.201235
0.198918
0.196633
0.194374
0.192136
0.189917
0.187719
0.185543
0.183397
0.181285
0.179216
0.177198
0.175245
0.173339
0.170213
0.166762
0.16346
0.160546
0.158132
0.156254
0.154911
0.15408
0.153728
0.153799
0.154249
0.15506
0.156383
0.15878
0.18386
0.364306
0.464114
0.540686
0.606138
0.665555
0.721019
0.773683
0.824345
0.873572
0.921775
0.969254
1.01623
1.06287
1.10932
1.15567
1.20201
1.24842
1.29499
1.34177
1.38884
1.43628
1.48417
1.53259
1.58162
1.63137
1.68192
1.73338
1.78584
1.83942
1.8942
1.9503
2.00781
2.06681
2.12738
2.18957
2.2534
2.31886
2.38588
2.45434
2.52403
2.59453
2.66545
2.73615
2.80581
2.87336
2.93754
2.99693
3.04996
3.09498
3.1304
3.15474
3.16678
3.16561
3.15073
3.12208
3.08001
3.02526
2.95892
2.88236
2.79714
2.70492
2.60738
2.50616
2.40279
2.29866
2.19499
2.09282
1.99301
1.89623
1.80299
1.71362
1.6284
1.54731
1.47058
1.39738
1.32917
1.26574
1.20708
1.15288
1.10286
1.05658
1.01367
0.973831
0.936791
0.902322
0.870209
0.840257
0.812284
0.786123
0.761617
0.738622
0.717005
0.696645
0.67743
0.659257
0.642033
0.625675
0.610105
0.595253
0.581057
0.56746
0.55441
0.541861
0.529771
0.518105
0.506829
0.495915
0.485336
0.475071
0.4651
0.455406
0.445975
0.436794
0.427852
0.419139
0.410647
0.402368
0.394295
0.386421
0.378741
0.37125
0.363941
0.35681
0.349851
0.343061
0.336436
0.329972
0.323666
0.317518
0.311524
0.305686
0.300003
0.294478
0.28911
0.283903
0.278859
0.273979
0.269266
0.264718
0.260337
0.25612
0.252064
0.248165
0.244417
0.240812
0.237344
0.234003
0.230781
0.22767
0.22466
0.221743
0.218911
0.216155
0.213462
0.210823
0.208235
0.205697
0.203208
0.20077
0.198387
0.196064
0.193807
0.191623
0.189519
0.187498
0.185449
0.183402
0.181431
0.179611
0.17801
0.176677
0.17565
0.174957
0.174621
0.174662
0.17512
0.176085
0.177828
0.181121
0.218531
0.43745
0.555285
0.643841
0.717858
0.784384
0.846435
0.905498
0.96247
1.01794
1.0723
1.12583
1.17872
1.23111
1.2831
1.33477
1.38617
1.43737
1.48843
1.53941
1.59038
1.64143
1.69265
1.74415
1.79604
1.84847
1.90157
1.95549
2.01039
2.06643
2.12379
2.18265
2.24317
2.30553
2.36991
2.43644
2.50525
2.57645
2.65007
2.72609
2.80441
2.88492
2.96739
3.05126
3.13573
3.21968
3.30169
3.38005
3.45277
3.51769
3.57255
3.61519
3.64368
3.65648
3.65255
3.63145
3.59331
3.53881
3.46914
3.3859
3.29099
3.18648
3.07451
2.95717
2.83645
2.71415
2.59185
2.47091
2.35239
2.23722
2.12604
2.01917
1.91723
1.81945
1.72756
1.6414
1.56095
1.48605
1.41652
1.35205
1.2923
1.23689
1.18545
1.13766
1.0932
1.05181
1.01323
0.977218
0.943554
0.912037
0.882479
0.854706
0.82856
0.803894
0.780575
0.758482
0.737505
0.717545
0.698511
0.680322
0.662904
0.646193
0.630129
0.61466
0.59974
0.585328
0.571387
0.557888
0.544801
0.532105
0.519779
0.507806
0.496172
0.484864
0.473873
0.463188
0.452802
0.442707
0.432897
0.423365
0.414105
0.405111
0.396378
0.387898
0.379667
0.371679
0.36393
0.356414
0.349128
0.342069
0.335236
0.328626
0.322239
0.316075
0.310134
0.304418
0.298926
0.293656
0.288607
0.283776
0.279157
0.274743
0.270525
0.266493
0.262636
0.258941
0.255397
0.251991
0.248711
0.245547
0.24249
0.23953
0.236659
0.233861
0.231128
0.228455
0.225838
0.223278
0.220775
0.218331
0.215949
0.213635
0.211395
0.209235
0.207163
0.205186
0.203293
0.201491
0.199797
0.19824
0.196851
0.195663
0.194707
0.194012
0.193608
0.193529
0.193832
0.194617
0.196103
0.198817
0.244868
0.488638
0.619165
0.7172
0.798318
0.870497
0.937485
1.00117
1.06262
1.1225
1.18124
1.2391
1.29625
1.35281
1.40884
1.46437
1.51944
1.57406
1.62828
1.68212
1.73565
1.78895
1.84212
1.89527
1.94853
2.00207
2.05606
2.11069
2.16616
2.22269
2.28051
2.33986
2.40099
2.46416
2.52961
2.59761
2.66839
2.74217
2.8191
2.89932
2.98286
3.06996
3.16067
3.25469
3.35137
3.44971
3.54827
3.64521
3.73821
3.82463
3.90155
3.96602
4.01524
4.04683
4.05902
4.05076
4.02176
3.97253
3.90424
3.81866
3.718
3.60475
3.48149
3.35081
3.21518
3.07681
2.9377
2.79959
2.66373
2.53138
2.40347
2.27951
2.16231
2.05151
1.94733
1.84975
1.75863
1.67374
1.59478
1.52143
1.4533
1.39002
1.3312
1.27649
1.22557
1.1781
1.13381
1.09243
1.05371
1.01741
0.983324
0.951254
0.921019
0.892454
0.865409
0.839747
0.815344
0.792089
0.769881
0.74863
0.728253
0.708679
0.689843
0.671689
0.654167
0.637233
0.620849
0.604984
0.589609
0.574702
0.560243
0.546217
0.532611
0.519413
0.506614
0.494208
0.482186
0.470544
0.459276
0.448375
0.437836
0.427652
0.417817
0.408325
0.399168
0.39034
0.381834
0.373645
0.365765
0.358192
0.35092
0.343946
0.337267
0.330881
0.324785
0.318975
0.313447
0.308194
0.30321
0.298482
0.293998
0.289744
0.285703
0.281857
0.278189
0.274682
0.271317
0.268081
0.264958
0.261938
0.259011
0.256166
0.253396
0.250684
0.248027
0.245422
0.24287
0.24037
0.237926
0.23554
0.233217
0.230964
0.228788
0.226695
0.224694
0.222794
0.221002
0.219325
0.217773
0.216362
0.215111
0.21404
0.213174
0.212535
0.212151
0.212056
0.212305
0.212985
0.214256
0.216468
0.263575
0.52114
0.659017
0.76328
0.849475
0.925696
0.996082
1.06283
1.12721
1.18999
1.25164
1.31245
1.37258
1.43212
1.49109
1.54949
1.6073
1.66451
1.72108
1.77704
1.83239
1.88719
1.94151
1.99545
2.04914
2.10273
2.15639
2.21033
2.26477
2.31995
2.37614
2.43362
2.4927
2.5537
2.61698
2.68288
2.75178
2.82403
2.89997
2.9799
3.06409
3.15316
3.24766
3.34771
3.45308
3.56305
3.67645
3.79144
3.90555
4.01567
4.11818
4.20917
4.28475
4.3414
4.37631
4.38755
4.37419
4.33634
4.27504
4.19213
4.09013
3.97194
3.84062
3.69928
3.55102
3.39849
3.244
3.09015
2.93791
2.78909
2.64628
2.50967
2.38005
2.25766
2.14261
2.03482
1.9341
1.84016
1.75268
1.67131
1.59563
1.52526
1.45979
1.39884
1.34206
1.2891
1.23963
1.19338
1.15005
1.1094
1.07118
1.03518
1.0012
0.969054
0.938583
0.909634
0.882071
0.855772
0.830626
0.806535
0.78341
0.761174
0.739758
0.719101
0.699151
0.679862
0.661197
0.643122
0.625611
0.608642
0.592198
0.576265
0.560832
0.545892
0.531437
0.517464
0.503968
0.490944
0.478391
0.466302
0.454674
0.4435
0.432774
0.422488
0.412634
0.403205
0.39419
0.385582
0.377372
0.369552
0.362115
0.355052
0.348357
0.342023
0.336041
0.330402
0.325094
0.320104
0.315414
0.311005
0.306856
0.302943
0.299242
0.295728
0.292378
0.289169
0.286083
0.283102
0.280211
0.2774
0.274659
0.271981
0.269349
0.26676
0.264213
0.261707
0.259243
0.256826
0.254458
0.252146
0.249895
0.247713
0.245608
0.243589
0.241665
0.239845
0.238141
0.236561
0.235116
0.233817
0.232679
0.231716
0.230947
0.230389
0.230067
0.230012
0.23027
0.230914
0.23206
0.233955
0.275505
0.537823
0.678183
0.785285
0.874305
0.952925
1.02533
1.09387
1.15996
1.22445
1.28787
1.35055
1.41264
1.47422
1.53528
1.59578
1.65565
1.71482
1.7732
1.83075
1.88743
1.94323
1.99816
2.05228
2.10567
2.15844
2.21071
2.26266
2.31447
2.36637
2.4186
2.47148
2.52532
2.5805
2.63743
2.69659
2.75847
2.82365
2.89267
2.96613
3.04459
3.12912
3.22103
3.32114
3.42988
3.54722
3.67249
3.80419
3.93985
4.07597
4.20813
4.33124
4.43999
4.52931
4.59494
4.63373
4.64383
4.62471
4.57709
4.50284
4.40471
4.2861
4.1506
4.00173
3.84362
3.67949
3.51091
3.34342
3.17871
3.01837
2.86392
2.71626
2.576
2.44347
2.31877
2.20182
2.09243
1.99033
1.89515
1.80653
1.72404
1.64728
1.57581
1.50924
1.44718
1.38926
1.33514
1.28448
1.237
1.19242
1.15046
1.11091
1.07354
1.03815
1.00456
0.972622
0.942175
0.913092
0.885253
0.858552
0.832894
0.808197
0.784388
0.761403
0.739188
0.717696
0.696889
0.676735
0.657209
0.638291
0.619966
0.602225
0.58506
0.568466
0.552443
0.536989
0.522104
0.507788
0.49404
0.48086
0.468244
0.456187
0.444684
0.433727
0.423307
0.413413
0.404034
0.395157
0.386769
0.378859
0.371413
0.364418
0.35786
0.351726
0.345999
0.340662
0.335694
0.331072
0.32677
0.32276
0.319012
0.315492
0.312172
0.30902
0.30601
0.303116
0.300318
0.297599
0.294944
0.292344
0.289792
0.287274
0.284784
0.28232
0.279883
0.277475
0.2751
0.272763
0.270471
0.268229
0.266047
0.263932
0.261894
0.259943
0.258089
0.256343
0.254715
0.253217
0.251859
0.25065
0.249604
0.248732
0.248049
0.247569
0.247312
0.247306
0.247592
0.248226
0.249293
0.250983
0.281536
0.54147
0.680212
0.787064
0.876756
0.956247
1.02948
1.09877
1.16558
1.23083
1.2951
1.35873
1.42191
1.4847
1.54708
1.60896
1.67024
1.73077
1.79043
1.84908
1.90662
1.96297
2.01805
2.07185
2.12434
2.17555
2.22552
2.27433
2.32207
2.36888
2.41493
2.46044
2.50571
2.55108
2.59701
2.64403
2.6928
2.7441
2.79882
2.85795
2.92256
2.99418
3.07513
3.16726
3.27205
3.39055
3.52306
3.6688
3.82558
3.98961
4.15553
4.31681
4.46624
4.59666
4.70189
4.77718
4.81941
4.82714
4.80066
4.74179
4.65338
4.53957
4.40466
4.25171
4.08717
3.91561
3.74017
3.56437
3.39078
3.2214
3.05778
2.90101
2.75181
2.6106
2.47754
2.35261
2.23565
2.12638
2.02445
1.92946
1.84101
1.75864
1.68192
1.61042
1.54373
1.48147
1.42326
1.36875
1.31763
1.26959
1.22435
1.18167
1.1413
1.10305
1.06671
1.03211
0.999089
0.967515
0.937256
0.9082
0.880247
0.853308
0.827308
0.80218
0.777868
0.754324
0.731512
0.709399
0.687964
0.667188
0.647061
0.627577
0.608732
0.59053
0.572972
0.556063
0.53981
0.524218
0.509291
0.495032
0.481441
0.468518
0.456257
0.444652
0.433692
0.423365
0.413656
0.404549
0.396027
0.388069
0.380657
0.373769
0.367385
0.36148
0.356031
0.35101
0.346387
0.34213
0.338204
0.334572
0.331197
0.328039
0.325064
0.322237
0.319529
0.316913
0.314368
0.311877
0.309428
0.30701
0.30462
0.302242
0.299875
0.297519
0.295177
0.292855
0.290556
0.288289
0.28606
0.283879
0.281754
0.279696
0.277715
0.275822
0.274027
0.272343
0.270779
0.269347
0.268058
0.266921
0.265947
0.265147
0.264531
0.264113
0.263909
0.263944
0.264251
0.264876
0.26588
0.267418
0.282577
0.534824
0.668771
0.772864
0.861421
0.940499
1.01357
1.08277
1.14951
1.21473
1.27903
1.34281
1.40625
1.46943
1.53232
1.59482
1.65678
1.718
1.7783
1.83747
1.89535
1.95174
2.0065
2.0595
2.11061
2.15974
2.20681
2.25173
2.29447
2.335
2.37333
2.40952
2.44371
2.47611
2.50708
2.53713
2.56699
2.59763
2.63034
2.66669
2.70856
2.75808
2.81867
2.89346
2.98541
3.09715
3.23052
3.38595
3.56187
3.75433
3.95698
4.16155
4.35847
4.5377
4.69065
4.81071
4.89327
4.93561
4.93747
4.90078
4.82779
4.72411
4.59545
4.44677
4.28355
4.11067
3.93227
3.75201
3.57287
3.3972
3.22682
3.06305
2.90679
2.7586
2.61875
2.48727
2.36404
2.24883
2.14128
2.04101
1.94757
1.86053
1.77943
1.70383
1.63328
1.56739
1.50576
1.44803
1.39385
1.3429
1.29491
1.24958
1.20669
1.166
1.12731
1.09043
1.0552
1.02148
0.989116
0.958
0.928025
0.899098
0.87114
0.844081
0.817865
0.792443
0.767778
0.743839
0.720606
0.698065
0.676208
0.655034
0.634545
0.614749
0.595657
0.577279
0.559628
0.542718
0.526558
0.51116
0.496528
0.482666
0.469574
0.457245
0.445671
0.434838
0.424729
0.415324
0.4066
0.39853
0.391087
0.384242
0.377964
0.372221
0.366977
0.362197
0.35784
0.353867
0.350234
0.346896
0.34381
0.340933
0.338225
0.33565
0.333175
0.330773
0.328423
0.326109
0.323818
0.321543
0.319275
0.317005
0.314733
0.312461
0.310193
0.307936
0.305696
0.303482
0.301302
0.299167
0.297087
0.295072
0.293135
0.291287
0.289538
0.287902
0.286388
0.285008
0.283772
0.282689
0.281769
0.28102
0.280453
0.280078
0.279911
0.27997
0.280284
0.280891
0.281833
0.283242
0.279504
0.520564
0.647558
0.747164
0.833324
0.911044
0.983192
1.05162
1.11763
1.18213
1.24575
1.3089
1.37181
1.43457
1.49715
1.55943
1.62125
1.68237
1.74256
1.80156
1.85912
1.91499
1.96893
2.02069
2.07006
2.11682
2.16073
2.20159
2.23918
2.27328
2.30371
2.33029
2.35292
2.37156
2.38631
2.39746
2.40557
2.41165
2.41726
2.42468
2.4369
2.45724
2.48987
2.5392
2.60996
2.70682
2.83369
2.99268
3.18322
3.40137
3.63985
3.88868
4.13594
4.36749
4.57211
4.74144
4.86943
4.95156
4.98663
4.97743
4.9276
4.84235
4.72744
4.58869
4.43189
4.2624
4.085
3.90382
3.7223
3.54318
3.36863
3.20023
3.03908
2.8859
2.74108
2.60474
2.47682
2.35711
2.24529
2.14098
2.04373
1.9531
1.86862
1.78984
1.71631
1.6476
1.58331
1.52305
1.46648
1.41326
1.36308
1.31567
1.27076
1.22813
1.18755
1.14884
1.11181
1.07632
1.04222
1.00939
0.977715
0.947102
0.917467
0.888739
0.860857
0.833774
0.80745
0.781857
0.756975
0.732792
0.709305
0.686515
0.664431
0.643065
0.622436
0.602562
0.583464
0.565163
0.547679
0.531029
0.515229
0.500289
0.486214
0.473004
0.460653
0.44915
0.438475
0.428608
0.419519
0.411178
0.40355
0.396596
0.390276
0.384548
0.379368
0.374689
0.370463
0.366641
0.363172
0.360007
0.357095
0.35439
0.351848
0.34943
0.347103
0.344839
0.342616
0.340416
0.338229
0.336048
0.333859
0.33166
0.32945
0.327233
0.325013
0.322799
0.320596
0.318416
0.316269
0.314164
0.312113
0.310128
0.308221
0.306404
0.304688
0.303085
0.301607
0.300264
0.299066
0.29802
0.297136
0.296422
0.295885
0.295536
0.295386
0.295452
0.295758
0.296333
0.297207
0.298497
0.272906
0.501161
0.620223
0.714556
0.797703
0.873494
0.944173
1.01129
1.07601
1.1392
1.2015
1.26334
1.32497
1.38652
1.44796
1.50918
1.57
1.63019
1.68946
1.74751
1.80405
1.85876
1.91133
1.96144
2.00879
2.05305
2.0939
2.13099
2.16399
2.19254
2.21627
2.23484
2.24791
2.2552
2.25652
2.25183
2.24138
2.22584
2.20668
2.18651
2.16939
2.16062
2.16452
2.18644
2.23273
2.31016
2.42484
2.58072
2.77825
3.01363
3.27898
3.56336
3.85478
4.13273
4.38373
4.59818
4.76858
4.89028
4.96182
4.98466
4.96226
4.89964
4.80273
4.67783
4.53119
4.36871
4.19574
4.01689
3.83606
3.65642
3.48043
3.30995
3.1463
2.99036
2.84264
2.70337
2.57254
2.44998
2.33541
2.22846
2.1287
2.03568
1.94893
1.86801
1.79244
1.7218
1.65567
1.59366
1.53541
1.48058
1.42886
1.37995
1.33359
1.28954
1.24758
1.2075
1.16913
1.13231
1.09689
1.06273
1.02974
0.997796
0.966823
0.936745
0.907499
0.879035
0.851313
0.824304
0.797987
0.772351
0.747395
0.723123
0.699546
0.676684
0.654558
0.633195
0.612623
0.592872
0.573973
0.555953
0.538836
0.522645
0.507394
0.493091
0.479739
0.467331
0.455852
0.445282
0.43559
0.426744
0.4187
0.411416
0.404841
0.398924
0.393611
0.388846
0.384573
0.380734
0.377272
0.374131
0.371255
0.368595
0.366103
0.363737
0.361462
0.359249
0.357075
0.354921
0.352777
0.350634
0.348479
0.346311
0.344127
0.341933
0.339734
0.337536
0.33535
0.333183
0.331048
0.328956
0.326918
0.324947
0.323055
0.321255
0.319557
0.317974
0.316517
0.315196
0.314019
0.312995
0.31213
0.311433
0.31091
0.310568
0.310418
0.310475
0.310756
0.311285
0.312083
0.313256
0.262459
0.478425
0.590156
0.679531
0.759622
0.833191
0.902026
0.967426
1.03043
1.09185
1.15233
1.2123
1.27204
1.3317
1.39128
1.45068
1.50972
1.56816
1.62571
1.68206
1.73686
1.78976
1.84041
1.88845
1.93351
1.97522
2.01318
2.047
2.07627
2.10056
2.11944
2.13249
2.13928
2.13944
2.13266
2.11878
2.09785
2.07032
2.03739
2.00149
1.96688
1.94037
1.92641
1.9308
1.96075
2.0243
2.12884
2.27916
2.47601
2.71558
2.98993
3.28777
3.59524
3.89655
4.17693
4.42407
4.62851
4.78401
4.88779
4.94016
4.94397
4.9039
4.82585
4.71631
4.58185
4.42878
4.26284
4.08909
3.91177
3.73439
3.5597
3.38978
3.22614
3.06982
2.92144
2.7813
2.64949
2.52587
2.4102
2.30212
2.20125
2.10713
2.0193
1.93732
1.86072
1.78907
1.72196
1.659
1.59982
1.54407
1.49145
1.44166
1.39442
1.3495
1.30668
1.26574
1.22651
1.18882
1.15251
1.11747
1.08357
1.0507
1.01878
0.987732
0.957486
0.927992
0.899206
0.871096
0.843641
0.816828
0.790654
0.765124
0.74025
0.716053
0.692558
0.669796
0.647802
0.626612
0.606266
0.586802
0.568256
0.550662
0.534047
0.518434
0.503837
0.490259
0.477696
0.466134
0.455548
0.445904
0.437159
0.429266
0.422169
0.415808
0.410121
0.405044
0.400511
0.396457
0.392817
0.389529
0.386532
0.383773
0.381199
0.378767
0.376438
0.374181
0.37197
0.369787
0.367618
0.365454
0.363282
0.361097
0.3589
0.356694
0.354482
0.352274
0.350076
0.347901
0.345757
0.343658
0.341615
0.33964
0.337746
0.335945
0.33425
0.33267
0.331218
0.329901
0.328729
0.327709
0.326847
0.326149
0.32562
0.325268
0.3251
0.325128
0.325368
0.325836
0.326548
0.327599
0.248862
0.453121
0.559948
0.645799
0.723119
0.794424
0.861268
0.924795
0.985925
1.04541
1.10385
1.16168
1.21919
1.27654
1.33376
1.39077
1.4474
1.50342
1.55854
1.61245
1.66479
1.71521
1.76334
1.80878
1.85114
1.89005
1.92508
1.95583
1.98187
2.0028
2.01819
2.02764
2.0308
2.02738
2.01719
2.00019
1.97662
1.94711
1.91308
1.87712
1.84323
1.81756
1.80497
1.81135
1.84364
1.90915
2.01408
2.16191
2.3525
2.58232
2.84506
3.13198
3.43193
3.73161
4.01696
4.27494
4.49477
4.66873
4.79251
4.86511
4.88837
4.86629
4.80439
4.70897
4.58665
4.44383
4.28645
4.11975
3.94823
3.77558
3.60472
3.43791
3.27678
3.12247
2.9757
2.83686
2.70606
2.58324
2.46818
2.36057
2.26003
2.16614
2.07845
1.99652
1.91991
1.8482
1.78097
1.71785
1.65847
1.60249
1.5496
1.49952
1.45198
1.40673
1.36356
1.32225
1.28263
1.24454
1.20781
1.17232
1.13795
1.10458
1.07214
1.04054
1.0097
0.979583
0.950129
0.921306
0.893088
0.865459
0.838412
0.81195
0.786082
0.760827
0.73621
0.712261
0.689018
0.66652
0.644814
0.623943
0.603956
0.584897
0.566809
0.549727
0.533683
0.518696
0.504779
0.491931
0.480138
0.469375
0.459607
0.450786
0.442856
0.435753
0.42941
0.423755
0.418713
0.414213
0.410182
0.406551
0.403254
0.400232
0.397429
0.394797
0.392293
0.389884
0.38754
0.38524
0.382969
0.380716
0.378466
0.376213
0.373955
0.371693
0.369432
0.367178
0.364939
0.362726
0.360548
0.358417
0.356346
0.354346
0.35243
0.350609
0.348896
0.3473
0.345832
0.344502
0.343315
0.342279
0.341398
0.340679
0.340124
0.33974
0.339533
0.339512
0.33969
0.340079
0.340689
0.34161
0.232569
0.426634
0.530734
0.614631
0.689905
0.759328
0.82444
0.8863
0.945743
1.00345
1.05998
1.11575
1.17104
1.22602
1.28073
1.33511
1.38903
1.44226
1.49456
1.5456
1.59507
1.64259
1.68782
1.73037
1.76986
1.80592
1.83816
1.8662
1.88967
1.90821
1.92148
1.92921
1.93119
1.92729
1.91758
1.90228
1.88194
1.85762
1.8312
1.80559
1.78544
1.77543
1.78058
1.80664
1.85962
1.94477
2.06527
2.2213
2.41042
2.62861
2.87116
3.13255
3.40557
3.68068
3.94644
4.19095
4.4035
4.57571
4.70223
4.78089
4.81244
4.79995
4.7482
4.663
4.55059
4.41717
4.26853
4.1099
3.94573
3.77974
3.61489
3.45347
3.29718
3.14718
3.00424
2.8688
2.74101
2.62084
2.50811
2.40253
2.30377
2.21142
2.12507
2.0443
1.96868
1.89782
1.83131
1.7688
1.70992
1.65437
1.60183
1.55203
1.50471
1.45964
1.4166
1.37539
1.33584
1.29778
1.26107
1.22556
1.19115
1.15772
1.12518
1.09345
1.06246
1.03214
1.00245
0.973345
0.94479
0.916768
0.889266
0.86228
0.835815
0.809884
0.784507
0.759711
0.735529
0.712002
0.689174
0.667093
0.645811
0.62538
0.605854
0.587282
0.569711
0.55318
0.537721
0.523353
0.510082
0.497902
0.48679
0.476711
0.467616
0.459445
0.452128
0.445592
0.439757
0.434545
0.429878
0.425678
0.421875
0.418401
0.415198
0.41221
0.409391
0.406703
0.404112
0.401594
0.399129
0.396704
0.394303
0.391916
0.389538
0.387168
0.38481
0.382468
0.380149
0.377862
0.375617
0.373424
0.371295
0.369242
0.367277
0.36541
0.363653
0.362017
0.360509
0.359139
0.357912
0.356835
0.355911
0.355144
0.354538
0.354096
0.353824
0.353729
0.35382
0.354107
0.354595
0.355368
0.21498
0.400364
0.503083
0.586239
0.660481
0.728822
0.792877
0.853685
0.912019
0.968505
1.02364
1.07782
1.13131
1.18427
1.23676
1.28874
1.34009
1.39065
1.44016
1.48838
1.53498
1.57966
1.62207
1.66188
1.69875
1.73234
1.76232
1.78838
1.81022
1.8276
1.84031
1.84822
1.85133
1.84975
1.84383
1.83416
1.82172
1.80821
1.79634
1.79005
1.79362
1.81142
1.84828
1.90902
1.99741
2.11503
2.26065
2.43066
2.62049
2.82613
3.04465
3.27348
3.50896
3.74523
3.97406
4.18588
4.37133
4.52256
4.63414
4.70333
4.73011
4.7167
4.66706
4.58624
4.47983
4.35349
4.21261
4.06204
3.90599
3.74798
3.59083
3.43672
3.28728
3.14365
3.00658
2.8765
2.75358
2.63781
2.52904
2.42701
2.33141
2.24187
2.15801
2.07944
2.00576
1.93661
1.87161
1.81042
1.75271
1.69818
1.64655
1.59755
1.55095
1.50652
1.46406
1.42338
1.38431
1.3467
1.3104
1.27529
1.24124
1.20816
1.17594
1.1445
1.11377
1.08368
1.05418
1.02523
0.996783
0.968815
0.941306
0.914247
0.887634
0.861473
0.835778
0.810567
0.785868
0.761715
0.738145
0.715206
0.692945
0.671417
0.650678
0.630786
0.611799
0.59377
0.576748
0.560776
0.545883
0.532086
0.519387
0.507771
0.497206
0.487648
0.479036
0.4713
0.464364
0.458146
0.452565
0.447538
0.44299
0.438846
0.435041
0.431515
0.428215
0.425096
0.422122
0.419261
0.41649
0.413791
0.411147
0.408542
0.405969
0.403425
0.400908
0.398422
0.395971
0.393563
0.391206
0.38891
0.386686
0.384543
0.382492
0.380545
0.378712
0.377001
0.37542
0.373978
0.372679
0.371528
0.370527
0.369681
0.36899
0.368458
0.368088
0.367886
0.367858
0.368011
0.368348
0.368948
0.197327
0.37519
0.477425
0.560827
0.635128
0.703452
0.767473
0.828212
0.886398
0.942596
0.997258
1.05073
1.10325
1.15498
1.20599
1.25626
1.30571
1.35421
1.40156
1.44755
1.49193
1.53443
1.57476
1.61265
1.64783
1.68001
1.70896
1.73445
1.75631
1.77443
1.78877
1.79941
1.80658
1.81072
1.81254
1.81315
1.81431
1.81891
1.83138
1.8556
1.89546
1.95492
2.03735
2.14454
2.27578
2.42761
2.59465
2.77119
2.95293
3.13774
3.32526
3.51554
3.70744
3.89754
4.08005
4.24765
4.3928
4.50901
4.59157
4.63803
4.64816
4.6237
4.56792
4.48512
4.38011
4.25781
4.12292
3.97971
3.8319
3.6826
3.5343
3.38896
3.24801
3.11247
2.98301
2.85999
2.74359
2.63378
2.53042
2.43329
2.34209
2.25651
2.17618
2.10076
2.0299
1.96324
1.90046
1.84125
1.78531
1.73236
1.68215
1.63444
1.589
1.54564
1.50417
1.46441
1.42622
1.38943
1.35393
1.31958
1.28628
1.25392
1.22241
1.19166
1.16159
1.13215
1.10326
1.07488
1.04697
1.01949
0.992424
0.965743
0.93944
0.913513
0.887966
0.862811
0.838066
0.813755
0.78991
0.766568
0.743771
0.721567
0.70001
0.679156
0.659065
0.639797
0.621413
0.603969
0.587515
0.572092
0.557728
0.544435
0.53221
0.52103
0.510856
0.501636
0.493304
0.485786
0.479003
0.472872
0.467315
0.462255
0.457619
0.453341
0.449364
0.445635
0.442112
0.438756
0.435539
0.432439
0.429434
0.426506
0.423642
0.420835
0.418079
0.415375
0.412726
0.410134
0.407608
0.405154
0.402781
0.400498
0.398316
0.396243
0.394288
0.392458
0.390762
0.389205
0.387791
0.386523
0.385405
0.384436
0.383618
0.382954
0.382444
0.382094
0.381907
0.381888
0.382037
0.382429
0.180412
0.351806
0.454311
0.538942
0.614518
0.684136
0.749456
0.811452
0.87079
0.927975
0.983402
1.03738
1.09013
1.14182
1.19252
1.24227
1.29103
1.33872
1.38522
1.43037
1.474
1.51591
1.5559
1.59376
1.6293
1.66235
1.69277
1.72047
1.74543
1.76773
1.78756
1.80528
1.8215
1.83712
1.85355
1.87292
1.89881
1.93681
1.99077
2.06304
2.15618
2.27129
2.40723
2.56026
2.72443
2.8929
3.05957
3.22059
3.37492
3.52391
3.66997
3.81493
3.95876
4.09899
4.231
4.34899
4.44705
4.52024
4.56509
4.57995
4.56495
4.52177
4.4533
4.36319
4.2555
4.13431
4.00354
3.86671
3.72687
3.58656
3.44782
3.31223
3.18095
3.05479
2.93427