/*--------------------------------*- C++ -*----------------------------------*\
| =========                 |                                                 |
| \\      /  F ield         | OpenFOAM: The Open Source CFD Toolbox           |
|  \\    /   O peration     | Version:  1.4.2                                 |
|   \\  /    A nd           | Web:      http://www.openfoam.org               |
|    \\/     M anipulation  |                                                 |
\*---------------------------------------------------------------------------*/
FoamFile
{
    version     2.0;
    format      ascii;
    class       volScalarField;
    object      p;
    location    "100";
}
// * * * * * * * * * * * * * * * * * * * * * * * * * * * * * * * * * * * * * //

dimensions      [0 2 -2 0 0 0 0];

internalField   nonuniform List<scalar> 
12225
(
4.86093
3.9337
3.63206
3.6157
3.64634
3.67475
3.70862
3.74708
3.78645
3.82252
3.85069
3.86714
3.86878
3.853
3.81581
3.75691
3.64436
3.67433
4.73858
4.01882
3.77804
3.77781
3.80305
3.819
3.83447
3.85155
3.86878
3.88308
3.89046
3.88741
3.87074
3.83774
3.78386
3.70918
3.57458
3.47946
4.59297
4.10722
3.90259
3.88807
3.90183
3.90936
3.91202
3.91206
3.90951
3.90268
3.88869
3.86471
3.82791
3.7759
3.70369
3.6123
3.45706
3.37433
4.44212
4.1377
3.97806
3.95804
3.96023
3.95866
3.9495
3.93426
3.91369
3.88715
3.85279
3.80853
3.75206
3.68144
3.59204
3.48571
3.32553
3.22765
4.30145
4.12105
4.00552
3.98971
3.98408
3.97366
3.95309
3.92357
3.88627
3.84133
3.78782
3.72434
3.64921
3.56099
3.45595
3.33637
3.17605
3.05268
4.1672
4.07713
3.99933
3.99094
3.98061
3.96188
3.92993
3.8863
3.83265
3.76983
3.69769
3.61556
3.52238
3.41716
3.29726
3.16461
3.00153
2.85288
4.0366
4.01325
3.96497
3.96359
3.94989
3.9234
3.88018
3.82263
3.75296
3.67275
3.58257
3.48248
3.37193
3.25045
3.11619
2.97058
2.801
2.6319
3.92996
3.94664
3.91566
3.91737
3.89824
3.86282
3.80801
3.73708
3.65268
3.55702
3.45115
3.33572
3.21051
3.07535
2.92871
2.77182
2.59398
2.4105
3.83976
3.87973
3.85894
3.85863
3.83241
3.78671
3.72007
3.63624
3.53832
3.42885
3.30941
3.1809
3.04351
2.89715
2.74053
2.57401
2.3886
2.1938
3.74198
3.7987
3.78725
3.78417
3.75242
3.69783
3.6207
3.52516
3.41485
3.29267
3.16073
3.02027
2.87189
2.71554
2.55024
2.37532
2.1835
1.98196
3.63512
3.70327
3.70064
3.69576
3.66105
3.60049
3.51575
3.41133
3.29116
3.15879
3.01671
2.86665
2.70943
2.5452
2.37315
2.19198
1.99594
1.7927
3.5186
3.59361
3.5987
3.59285
3.55736
3.49375
3.40459
3.29451
3.16791
3.02867
2.87974
2.72327
2.56031
2.39122
2.21536
2.03129
1.83484
1.63499
3.39222
3.47027
3.48158
3.47542
3.44089
3.37708
3.28697
3.17513
3.04629
2.90453
2.75328
2.59482
2.43062
2.26119
2.08614
1.90432
1.71331
1.52291
3.25695
3.33464
3.35048
3.34457
3.31241
3.25123
3.16379
3.05464
2.92858
2.78983
2.64198
2.48754
2.32822
2.16477
1.99713
1.82468
1.64679
1.4729
3.11576
3.18974
3.20839
3.20323
3.17456
3.11862
3.03759
2.93592
2.81825
2.68887
2.55131
2.40817
2.26126
2.11162
1.95952
1.80496
1.64884
1.49859
2.97432
3.04131
3.0612
3.05747
3.03326
2.98478
2.91371
2.82419
2.7207
2.60725
2.48717
2.36299
2.2364
2.10857
1.97991
1.85094
1.7235
1.6014
2.84178
2.89924
2.91891
2.91736
2.89863
2.8595
2.8014
2.72817
2.64394
2.55224
2.45597
2.35721
2.25731
2.15709
2.05685
1.9572
1.86011
1.76509
2.73878
2.78646
2.80377
2.80375
2.78962
2.75884
2.71296
2.65568
2.5906
2.52068
2.44804
2.37397
2.29916
2.22376
2.14745
2.07047
1.99449
1.9158
2.67908
2.71909
2.73167
2.73012
2.71666
2.68935
2.65024
2.60301
2.55089
2.49612
2.43996
2.38281
2.32443
2.2641
2.20085
2.13435
2.06591
1.99067
2.65733
2.69222
2.69846
2.69223
2.67532
2.64628
2.60786
2.56389
2.51727
2.46965
2.42147
2.37233
2.32119
2.26675
2.20752
2.14286
2.07385
1.99574
2.66488
2.69568
2.69387
2.6805
2.65691
2.62202
2.57934
2.53292
2.48542
2.43799
2.39055
2.34211
2.29125
2.23636
2.17574
2.10867
2.03614
1.95404
2.69561
2.72117
2.70879
2.68619
2.65337
2.60942
2.55861
2.5052
2.4517
2.39904
2.34689
2.29414
2.23923
2.18048
2.11626
2.04579
1.9699
1.88539
2.7453
2.76193
2.73545
2.70189
2.658
2.60266
2.54086
2.47697
2.41362
2.35181
2.29135
2.23124
2.17003
2.10605
2.03776
1.96425
1.88612
1.8012
2.81101
2.81197
2.76702
2.72134
2.66535
2.59716
2.52236
2.44558
2.36977
2.29637
2.22552
2.15652
2.08805
2.01858
1.94652
1.87077
1.79168
1.70793
2.89059
2.86555
2.79738
2.73915
2.67082
2.58913
2.50021
2.40914
2.31941
2.23312
2.15092
2.07249
1.99668
1.92202
1.84686
1.76984
1.69086
1.60918
2.98262
2.91709
2.8212
2.75048
2.67048
2.57543
2.47207
2.36613
2.26192
2.16235
2.06869
1.98099
1.8983
1.81913
1.74172
1.66441
1.58646
1.50713
3.08808
2.95996
2.83212
2.75018
2.66084
2.55373
2.43641
2.31571
2.19708
2.08443
1.97972
1.88337
1.79456
1.71176
1.63302
1.5563
1.48016
1.40321
3.21502
2.9803
2.81468
2.72479
2.63036
2.51369
2.38404
2.25001
2.11842
1.9942
1.87997
1.77646
1.68295
1.59783
1.51897
1.44394
1.37059
1.29645
3.36622
2.95875
2.75298
2.66029
2.56468
2.44136
2.30305
2.16025
2.02054
1.8894
1.7698
1.66262
1.56721
1.48192
1.40451
1.33232
1.26259
1.19206
3.51277
2.93196
2.66602
2.53868
2.42154
2.28273
2.13696
1.99349
1.8575
1.73257
1.62045
1.52133
1.43424
1.35747
1.28874
1.22533
1.16412
1.1003
0.652034
0.610884
0.543674
0.444708
0.310706
0.142103
-0.059529
-0.292203
-0.553562
-0.840984
-1.1517
-1.48286
-1.83166
-2.19534
-2.57127
-2.95693
-3.34991
-3.74795
-4.14886
-4.55056
-4.95098
-5.3481
-5.73983
-6.12401
-6.49839
-6.86059
-7.20806
-7.53804
-7.84752
-8.13319
-8.39157
-8.61891
-8.81126
-8.9643
-9.07336
-9.13347
-9.13988
-9.08833
-8.97472
-8.7941
-8.54041
-8.20851
-7.79545
-7.29981
-6.72172
-6.06305
-5.32747
-4.52053
-3.64957
-2.72355
-1.75281
-0.748717
0.276664
1.31105
2.34234
3.35903
4.3506
5.30779
6.22281
7.0895
7.90332
8.66133
9.36209
10.0055
10.5925
11.125
11.6056
12.0375
12.4242
12.7692
13.0765
13.3495
13.5919
13.8071
13.9983
14.1684
14.3203
14.4559
14.5778
14.6898
14.7925
14.8849
14.9681
15.0432
15.1114
15.1736
15.2308
15.2835
15.3325
15.3782
15.421
15.4614
15.4997
15.536
15.5705
15.6035
15.635
15.6652
15.6941
15.7218
15.7483
15.7736
15.7977
15.8206
15.8423
15.8628
15.882
15.8999
15.9166
15.9319
15.9459
15.9585
15.9696
15.9794
15.9878
15.9948
16.0004
16.0046
16.0073
16.0087
16.0088
16.0075
16.0049
16.001
15.9958
15.9895
15.9821
15.9736
15.9642
15.9537
15.9425
15.9305
15.9178
15.9046
15.8908
15.8767
15.8623
15.8477
15.8331
15.8184
15.8039
15.7895
15.7754
15.7615
15.748
15.7348
15.7219
15.7094
15.6973
15.6856
15.6742
15.6631
15.6523
15.6419
15.6318
15.6221
15.6126
15.6034
15.5946
15.586
15.5777
15.5697
15.562
15.5547
15.5479
15.5423
15.5372
15.5314
15.5256
15.5205
15.5164
15.5137
15.5128
15.5145
15.5201
15.5314
15.5512
15.5844
15.6422
15.7325
0.767022
0.691399
0.615666
0.525259
0.401204
0.240681
0.0454348
-0.182138
-0.439337
-0.72324
-1.03083
-1.35911
-1.70515
-2.06616
-2.43949
-2.82266
-3.21333
-3.60932
-4.00857
-4.40911
-4.809
-5.20635
-5.5992
-5.98556
-6.36333
-6.73028
-7.08401
-7.42194
-7.74123
-8.03881
-8.31138
-8.55538
-8.76699
-8.94213
-9.07638
-9.16502
-9.20335
-9.18706
-9.11192
-8.97274
-8.76319
-8.47797
-8.11378
-7.66846
-7.14121
-6.53278
-5.84566
-5.08415
-4.25441
-3.36429
-2.42321
-1.4419
-0.432006
0.594275
1.6247
2.6474
3.65127
4.62632
5.56396
6.45714
7.30049
8.09024
8.82416
9.50146
10.1225
10.6887
11.2023
11.6661
12.0833
12.4574
12.792
13.0907
13.3567
13.5935
13.8042
13.992
14.1604
14.312
14.4479
14.5696
14.6791
14.7779
14.8673
14.9484
15.0222
15.0898
15.152
15.2093
15.2626
15.3122
15.3586
15.4023
15.4435
15.4826
15.5196
15.5548
15.5885
15.6205
15.6512
15.6804
15.7084
15.735
15.7603
15.7844
15.8072
15.8287
15.849
15.8678
15.8854
15.9016
15.9164
15.9298
15.9418
15.9524
15.9616
15.9694
15.9757
15.9807
15.9842
15.9864
15.9872
15.9866
15.9848
15.9816
15.9772
15.9717
15.965
15.9573
15.9485
15.9388
15.9283
15.917
15.905
15.8925
15.8794
15.866
15.8523
15.8384
15.8243
15.8103
15.7964
15.7826
15.769
15.7557
15.7427
15.73
15.7176
15.7055
15.6939
15.6825
15.6715
15.6607
15.6503
15.6402
15.6304
15.6208
15.6116
15.6026
15.5939
15.5855
15.5774
15.5695
15.562
15.5547
15.5477
15.5404
15.5332
15.5272
15.522
15.5175
15.5141
15.512
15.5116
15.5137
15.5196
15.5309
15.5505
15.5824
15.6361
15.7044
0.738545
0.612975
0.48814
0.368602
0.226797
0.0556044
-0.145131
-0.374232
-0.629838
-0.909649
-1.21115
-1.53176
-1.86893
-2.22021
-2.58326
-2.95588
-3.33599
-3.72166
-4.11104
-4.50232
-4.89377
-5.28362
-5.67006
-6.05122
-6.42513
-6.78965
-7.14251
-7.48123
-7.80313
-8.10527
-8.38451
-8.63743
-8.86036
-9.04941
-9.20035
-9.30867
-9.36979
-9.37937
-9.33318
-9.22584
-9.05056
-8.80138
-8.47432
-8.06641
-7.57589
-7.00248
-6.34759
-5.61454
-4.80859
-3.93693
-3.00857
-2.03413
-1.02546
0.00486384
1.04404
2.07957
3.09965
4.09358
5.05211
5.9676
6.83412
7.64746
8.40505
9.1058
9.74989
10.3386
10.8739
11.3585
11.7957
12.1887
12.5409
12.8558
13.1368
13.3877
13.6126
13.8154
13.998
14.1614
14.3078
14.4392
14.5578
14.6648
14.7618
14.8499
14.9302
15.0036
15.0711
15.1334
15.191
15.2447
15.2948
15.3418
15.386
15.4278
15.4673
15.5049
15.5406
15.5746
15.607
15.6379
15.6673
15.6953
15.722
15.7473
15.7712
15.7938
15.8151
15.835
15.8534
15.8705
15.8862
15.9005
15.9133
15.9248
15.9347
15.9433
15.9504
15.9561
15.9604
15.9633
15.9648
15.965
15.9638
15.9614
15.9577
15.9529
15.9469
15.9399
15.9318
15.9228
15.913
15.9024
15.8911
15.8792
15.8668
15.8541
15.841
15.8277
15.8144
15.801
15.7878
15.7746
15.7617
15.7489
15.7365
15.7244
15.7125
15.701
15.6898
15.6789
15.6683
15.658
15.648
15.6382
15.6287
15.6195
15.6105
15.6018
15.5933
15.5851
15.5771
15.5694
15.5619
15.5548
15.5478
15.5409
15.5345
15.5291
15.5241
15.5197
15.516
15.5136
15.5128
15.5144
15.5195
15.5294
15.5466
15.5737
15.6169
15.6598
0.522747
0.371349
0.221933
0.0863189
-0.067064
-0.246011
-0.450901
-0.680961
-0.934765
-1.21043
-1.50587
-1.8189
-2.14735
-2.48915
-2.8423
-3.20491
-3.5752
-3.9515
-4.33219
-4.71568
-5.10038
-5.48471
-5.86697
-6.24542
-6.61819
-6.98322
-7.33832
-7.68106
-8.00884
-8.3188
-8.60783
-8.87255
-9.10934
-9.31434
-9.48335
-9.61184
-9.69513
-9.72873
-9.70825
-9.62818
-9.4811
-9.26009
-8.96025
-8.5777
-8.10971
-7.55497
-6.91397
-6.18923
-5.38549
-4.50973
-3.57112
-2.58079
-1.55142
-0.496611
0.569816
1.63429
2.68401
3.70741
4.6945
5.63711
6.52897
7.36568
8.14461
8.8647
9.52621
10.1304
10.6797
11.1765
11.6243
12.0265
12.3867
12.7092
12.9986
13.2596
13.4945
13.7051
13.894
14.0632
14.2152
14.3519
14.4752
14.5867
14.6876
14.7794
14.8631
14.9397
15.0101
15.075
15.1352
15.1912
15.2434
15.2924
15.3385
15.382
15.4232
15.4622
15.4993
15.5347
15.5683
15.6004
15.6309
15.66
15.6877
15.7139
15.7388
15.7623
15.7844
15.805
15.8243
15.8422
15.8586
15.8736
15.8871
15.8992
15.9098
15.919
15.9268
15.9331
15.938
15.9415
15.9437
15.9445
15.9439
15.9421
15.9391
15.9349
15.9295
15.9231
15.9156
15.9073
15.8981
15.8881
15.8774
15.8661
15.8544
15.8423
15.8299
15.8173
15.8046
15.7919
15.7793
15.7669
15.7546
15.7425
15.7307
15.7192
15.708
15.697
15.6863
15.6759
15.6658
15.6559
15.6463
15.6369
15.6277
15.6188
15.6101
15.6015
15.5933
15.5852
15.5774
15.5697
15.5623
15.5552
15.5483
15.5415
15.5352
15.5295
15.5242
15.5195
15.5156
15.5128
15.5115
15.5124
15.5162
15.5241
15.5377
15.5584
15.5892
15.6108
0.155817
-0.00670086
-0.166261
-0.308625
-0.466793
-0.648464
-0.853806
-1.08206
-1.33191
-1.60168
-1.88952
-2.19358
-2.51202
-2.8431
-3.18515
-3.53661
-3.89602
-4.26194
-4.63303
-5.0079
-5.38517
-5.76341
-6.1411
-6.5166
-6.88815
-7.25377
-7.61137
-7.9586
-8.2929
-8.61147
-8.91122
-9.18883
-9.44069
-9.66292
-9.85131
-10.0013
-10.108
-10.1667
-10.1729
-10.121
-10.0028
-9.81004
-9.53663
-9.17772
-8.72945
-8.18939
-7.55696
-6.83385
-6.02427
-5.13513
-4.17596
-3.15874
-2.09735
-1.00673
0.0978089
1.20127
2.28958
3.35011
4.37207
5.34676
6.26767
7.13026
7.9319
8.67175
9.35013
9.96852
10.5294
11.0358
11.4915
11.9013
12.2702
12.6029
12.9019
13.1699
13.4098
13.6246
13.8171
13.9896
14.1446
14.2841
14.4099
14.5237
14.6269
14.7208
14.8064
14.8849
14.9571
15.0237
15.0855
15.143
15.1968
15.2472
15.2947
15.3395
15.3819
15.4222
15.4605
15.4969
15.5317
15.5647
15.5963
15.6263
15.6549
15.682
15.7077
15.732
15.7549
15.7763
15.7964
15.8149
15.8321
15.8477
15.8619
15.8747
15.886
15.8958
15.9042
15.9111
15.9166
15.9207
15.9235
15.9248
15.9249
15.9237
15.9213
15.9176
15.9129
15.9071
15.9002
15.8925
15.8839
15.8745
15.8645
15.8539
15.8428
15.8313
15.8196
15.8077
15.7958
15.7838
15.7719
15.7602
15.7486
15.7372
15.726
15.7151
15.7045
15.6941
15.6839
15.6739
15.6642
15.6548
15.6455
15.6364
15.6275
15.6188
15.6102
15.6019
15.5937
15.5857
15.5779
15.5704
15.563
15.5557
15.5488
15.542
15.5355
15.5295
15.524
15.519
15.5147
15.5114
15.5093
15.509
15.5111
15.5163
15.5257
15.5392
15.558
15.562
-0.316591
-0.480002
-0.641257
-0.784789
-0.942518
-1.12208
-1.3237
-1.54668
-1.78983
-2.0516
-2.33034
-2.6244
-2.93222
-3.25229
-3.58326
-3.92383
-4.27277
-4.62891
-4.99111
-5.35817
-5.7289
-6.10201
-6.47611
-6.84969
-7.22106
-7.58836
-7.94955
-8.30235
-8.64424
-8.97246
-9.28397
-9.57545
-9.84329
-10.0836
-10.2922
-10.4644
-10.5951
-10.6794
-10.7127
-10.6893
-10.6003
-10.4358
-10.1885
-9.85234
-9.42222
-8.89441
-8.26706
-7.54084
-6.71935
-5.80943
-4.8212
-3.7678
-2.66472
-1.5288
-0.377281
0.773062
1.90666
3.00976
4.07066
5.08018
6.03167
6.92051
7.74411
8.50202
9.19487
9.82473
10.3955
10.9111
11.3776
11.7992
12.1778
12.5173
12.8211
13.0929
13.3359
13.5535
13.7484
13.9231
14.0801
14.2214
14.349
14.4644
14.5691
14.6645
14.7517
14.8316
14.9052
14.9732
15.0364
15.0952
15.1503
15.202
15.2507
15.2967
15.3404
15.3818
15.4212
15.4587
15.4944
15.5286
15.5611
15.5921
15.6216
15.6496
15.6762
15.7013
15.725
15.7473
15.7681
15.7874
15.8053
15.8217
15.8366
15.85
15.862
15.8724
15.8814
15.889
15.8952
15.8999
15.9032
15.9052
15.9059
15.9053
15.9035
15.9005
15.8964
15.8913
15.8851
15.878
15.8701
15.8614
15.852
15.8422
15.8318
15.8211
15.8102
15.799
15.7879
15.7767
15.7655
15.7545
15.7437
15.733
15.7225
15.7122
15.7021
15.6922
15.6825
15.6729
15.6636
15.6545
15.6455
15.6366
15.6279
15.6193
15.6109
15.6026
15.5945
15.5866
15.5788
15.5711
15.5636
15.5563
15.5492
15.5423
15.5356
15.5294
15.5235
15.5181
15.5132
15.5092
15.5061
15.5044
15.5044
15.5066
15.5113
15.5177
15.5256
15.5153
-0.846895
-1.00235
-1.15806
-1.2981
-1.45125
-1.62498
-1.81969
-2.03484
-2.26933
-2.52174
-2.79054
-3.07424
-3.37145
-3.68091
-4.00144
-4.33197
-4.67146
-5.01893
-5.37341
-5.73389
-6.09931
-6.46851
-6.84023
-7.21305
-7.58537
-7.95542
-8.32123
-8.68056
-9.03096
-9.36969
-9.69376
-9.99984
-10.2844
-10.5434
-10.7728
-10.9677
-11.123
-11.2335
-11.2943
-11.3001
-11.2412
-11.106
-10.8855
-10.5728
-10.1612
-9.64559
-9.0224
-8.29095
-7.45398
-6.51823
-5.49458
-4.39765
-3.24505
-2.05608
-0.850483
0.352737
1.53639
2.68547
3.78721
4.83191
5.81312
6.72619
7.56889
8.34252
9.04897
9.6922
10.2774
10.8065
11.2832
11.7112
12.0946
12.4378
12.7446
13.0189
13.2642
13.4837
13.6804
13.8568
14.0154
14.1582
14.2872
14.4041
14.5103
14.607
14.6956
14.7769
14.8518
14.9212
14.9857
15.0459
15.1023
15.1553
15.2053
15.2526
15.2974
15.34
15.3806
15.4192
15.4561
15.4913
15.5248
15.5569
15.5874
15.6164
15.6439
15.6699
15.6945
15.7176
15.7392
15.7593
15.778
15.7951
15.8108
15.825
15.8376
15.8488
15.8585
15.8668
15.8736
15.879
15.883
15.8857
15.887
15.8871
15.886
15.8837
15.8803
15.8758
15.8704
15.864
15.8568
15.8489
15.8404
15.8313
15.8217
15.8119
15.8018
15.7915
15.7811
15.7707
15.7604
15.7502
15.74
15.73
15.7201
15.7104
15.7008
15.6914
15.6821
15.6729
15.6639
15.655
15.6462
15.6375
15.6289
15.6204
15.612
15.6037
15.5956
15.5876
15.5797
15.572
15.5644
15.5569
15.5496
15.5425
15.5355
15.5289
15.5226
15.5167
15.5112
15.5062
15.502
15.4987
15.4965
15.4954
15.4955
15.4951
15.4933
15.4713
-1.38923
-1.52972
-1.674
-1.80689
-1.95253
-2.11805
-2.30403
-2.51
-2.73495
-2.97754
-3.23633
-3.50999
-3.79725
-4.09699
-4.40819
-4.72993
-5.06135
-5.40162
-5.74988
-6.10527
-6.46684
-6.83356
-7.20424
-7.57756
-7.95201
-8.3259
-8.69729
-9.06402
-9.42367
-9.77354
-10.1107
-10.4317
-10.7331
-11.011
-11.2611
-11.4787
-11.6584
-11.7948
-11.883
-11.9176
-11.8885
-11.7824
-11.5891
-11.3003
-10.9082
-10.4056
-9.78716
-9.0502
-8.19622
-7.23171
-6.16846
-5.02291
-3.81519
-2.56785
-1.30391
-0.0451323
1.1897
2.38433
3.52466
4.60108
5.60877
6.54394
7.40615
8.19957
8.92467
9.58256
10.1776
10.7134
11.1947
11.6262
12.0125
12.3579
12.6667
12.9428
13.1896
13.4107
13.6088
13.7867
13.9467
14.091
14.2215
14.3399
14.4476
14.5459
14.636
14.7188
14.7953
14.8663
14.9323
14.994
15.0518
15.1063
15.1577
15.2063
15.2525
15.2964
15.3382
15.3781
15.4162
15.4526
15.4873
15.5204
15.552
15.5821
15.6106
15.6376
15.6632
15.6872
15.7097
15.7308
15.7503
15.7683
15.7847
15.7997
15.8131
15.8251
15.8355
15.8445
15.8521
15.8582
15.863
15.8664
15.8685
15.8693
15.8689
15.8674
15.8647
15.8611
15.8564
15.8509
15.8445
15.8375
15.8298
15.8216
15.8129
15.8039
15.7947
15.7853
15.7758
15.7662
15.7567
15.7472
15.7377
15.7283
15.719
15.7098
15.7006
15.6915
15.6825
15.6736
15.6648
15.6561
15.6474
15.6388
15.6302
15.6218
15.6134
15.6051
15.5969
15.5888
15.5808
15.5729
15.5651
15.5574
15.5499
15.5425
15.5353
15.5283
15.5215
15.515
15.5087
15.5028
15.4973
15.4923
15.4877
15.4834
15.4789
15.4722
15.4618
15.4303
-1.90311
-2.02331
-2.15139
-2.2742
-2.41045
-2.5666
-2.74321
-2.93975
-3.15521
-3.38829
-3.63767
-3.90208
-4.18039
-4.47159
-4.77477
-5.08915
-5.41396
-5.74849
-6.09199
-6.44371
-6.80276
-7.16821
-7.53898
-7.9138
-8.29125
-8.66969
-9.04724
-9.42178
-9.79094
-10.152
-10.5021
-10.8378
-11.1557
-11.4516
-11.7215
-11.9604
-12.1631
-12.3239
-12.4377
-12.4989
-12.497
-12.4178
-12.2501
-11.9848
-11.613
-11.1252
-10.5135
-9.77265
-8.9022
-7.90826
-6.8038
-5.60742
-4.34223
-3.03525
-1.71377
-0.402391
0.879701
2.11573
3.29055
4.39709
5.43365
6.39503
7.27841
8.08643
8.82098
9.4856
10.085
10.6239
11.1074
11.5405
11.9279
12.2744
12.5841
12.8612
13.1091
13.3313
13.5307
13.71
13.8716
14.0175
14.1497
14.2699
14.3794
14.4795
14.5714
14.6562
14.7345
14.8072
14.8751
14.9385
14.9981
15.0542
15.1072
15.1574
15.2052
15.2506
15.2939
15.3352
15.3746
15.4123
15.4483
15.4827
15.5155
15.5467
15.5764
15.6045
15.6311
15.6562
15.6798
15.7018
15.7222
15.7411
15.7585
15.7743
15.7887
15.8015
15.8128
15.8226
15.831
15.8379
15.8435
15.8477
15.8506
15.8522
15.8527
15.852
15.8502
15.8474
15.8436
15.839
15.8336
15.8274
15.8207
15.8134
15.8057
15.7976
15.7893
15.7807
15.772
15.7632
15.7544
15.7455
15.7367
15.7278
15.719
15.7102
15.7014
15.6926
15.6838
15.6751
15.6664
15.6577
15.6491
15.6405
15.632
15.6235
15.615
15.6066
15.5983
15.5901
15.5819
15.5738
15.5659
15.558
15.5502
15.5425
15.5349
15.5275
15.5202
15.513
15.506
15.499
15.4922
15.4854
15.4784
15.4709
15.462
15.4495
15.4318
15.3925
-2.35502
-2.45114
-2.55912
-2.66965
-2.79563
-2.94228
-3.10979
-3.29743
-3.50408
-3.72848
-3.96939
-4.22563
-4.49617
-4.78009
-5.07657
-5.38491
-5.70442
-6.03449
-6.3744
-6.7235
-7.08098
-7.44595
-7.8174
-8.19415
-8.57482
-8.95782
-9.34133
-9.72327
-10.1013
-10.4727
-10.8347
-11.1837
-11.5163
-11.8284
-12.1157
-12.3734
-12.596
-12.778
-12.9137
-12.9967
-13.0159
-12.9577
-12.8114
-12.5676
-12.2157
-11.7441
-11.1413
-10.3989
-9.51427
-8.49321
-7.35033
-6.10653
-4.78774
-3.4266
-2.05473
-0.698077
0.62694
1.90395
3.11499
4.25125
5.30889
6.2847
7.17849
7.99279
8.73101
9.3976
9.99765
10.5365
11.0195
11.452
11.8389
12.1851
12.4948
12.7722
13.0208
13.2439
13.4446
13.6254
13.7886
13.9364
14.0706
14.1929
14.3045
14.4069
14.5011
14.588
14.6686
14.7435
14.8134
14.879
14.9405
14.9986
15.0536
15.1056
15.1552
15.2023
15.2472
15.2902
15.3312
15.3704
15.4078
15.4436
15.4777
15.5103
15.5412
15.5706
15.5984
15.6247
15.6493
15.6724
15.6939
15.7139
15.7323
15.7491
15.7644
15.7781
15.7904
15.8011
15.8104
15.8183
15.8247
15.8299
15.8337
15.8362
15.8376
15.8378
15.837
15.8351
15.8323
15.8286
15.8242
15.819
15.8132
15.8069
15.8001
15.7929
15.7855
15.7777
15.7698
15.7617
15.7535
15.7452
15.7369
15.7285
15.72
15.7115
15.703
15.6944
15.6857
15.6771
15.6685
15.6599
15.6512
15.6426
15.634
15.6254
15.6169
15.6084
15.5999
15.5915
15.5831
15.5748
15.5666
15.5585
15.5504
15.5424
15.5344
15.5265
15.5187
15.5109
15.503
15.495
15.4868
15.4782
15.4689
15.4582
15.4452
15.4274
15.4033
15.3576
-2.71858
-2.78849
-2.87372
-2.97082
-3.08672
-3.2245
-3.38369
-3.56326
-3.76203
-3.97875
-4.21225
-4.46146
-4.72542
-5.00325
-5.29422
-5.59767
-5.91296
-6.2395
-6.57667
-6.9238
-7.28016
-7.64491
-8.01706
-8.39547
-8.77882
-9.16554
-9.55384
-9.94168
-10.3267
-10.7063
-11.0775
-11.4369
-11.7809
-12.1053
-12.4059
-12.6776
-12.9151
-13.1126
-13.2641
-13.3611
-13.3912
-13.3437
-13.2108
-12.9824
-12.6465
-12.1891
-11.5958
-10.8552
-9.96257
-8.9235
-7.75422
-6.47771
-5.11986
-3.71411
-2.29682
-0.896333
0.46552
1.77067
3.00426
4.15739
5.2256
6.20733
7.10369
7.91783
8.6541
9.3177
9.91428
10.4496
10.9294
11.3591
11.7438
12.0885
12.3974
12.6745
12.9234
13.1474
13.3494
13.5318
13.697
13.8471
13.9836
14.1084
14.2226
14.3276
14.4245
14.5141
14.5972
14.6747
14.7472
14.8152
14.8791
14.9395
14.9966
15.0508
15.1024
15.1515
15.1983
15.2431
15.2858
15.3267
15.3658
15.4031
15.4388
15.4728
15.5051
15.5359
15.565
15.5925
15.6184
15.6427
15.6654
15.6866
15.7061
15.724
15.7404
15.7552
15.7685
15.7803
15.7906
15.7995
15.807
15.8131
15.8179
15.8214
15.8238
15.825
15.8251
15.8243
15.8225
15.8198
15.8164
15.8122
15.8074
15.802
15.7961
15.7898
15.7832
15.7762
15.769
15.7615
15.7539
15.7461
15.7381
15.7301
15.7219
15.7136
15.7053
15.6968
15.6882
15.6797
15.671
15.6624
15.6537
15.645
15.6363
15.6276
15.6189
15.6102
15.6015
15.5929
15.5844
15.5758
15.5674
15.5589
15.5505
15.5422
15.5338
15.5255
15.5171
15.5086
15.4998
15.4908
15.4812
15.4709
15.4593
15.4457
15.4288
15.4063
15.3767
15.3257
-2.97339
-3.01657
-3.07818
-3.16202
-3.26885
-3.39859
-3.55021
-3.72254
-3.91435
-4.12444
-4.3517
-4.59506
-4.85363
-5.12658
-5.4132
-5.71281
-6.02484
-6.34864
-6.68365
-7.02919
-7.38453
-7.74885
-8.12117
-8.50035
-8.88506
-9.27376
-9.66466
-10.0557
-10.4445
-10.8285
-11.2047
-11.5697
-11.9197
-12.2507
-12.5582
-12.837
-13.082
-13.2874
-13.4468
-13.5488
-13.5808
-13.5364
-13.4105
-13.1929
-12.8705
-12.4278
-11.8481
-11.1173
-10.2278
-9.18246
-7.99633
-6.69486
-5.3093
-3.87382
-2.42512
-0.995075
0.390673
1.71257
2.95681
4.11513
5.18372
6.16219
7.05279
7.8596
8.58784
9.24338
9.83235
10.3609
10.8348
11.2598
11.641
11.9832
12.2906
12.5671
12.8163
13.0412
13.2446
13.429
13.5966
13.7492
13.8886
14.0163
14.1336
14.2417
14.3416
14.4343
14.5205
14.601
14.6764
14.7471
14.8138
14.8768
14.9364
14.993
15.0469
15.0982
15.1472
15.1939
15.2386
15.2814
15.3222
15.3613
15.3986
15.4342
15.4681
15.5003
15.5309
15.5598
15.5871
15.6127
15.6367
15.6591
15.6799
15.699
15.7166
15.7326
15.7471
15.76
15.7715
15.7815
15.79
15.7972
15.8031
15.8077
15.8111
15.8134
15.8146
15.8148
15.814
15.8124
15.81
15.8068
15.8029
15.7985
15.7935
15.788
15.7821
15.7759
15.7693
15.7624
15.7552
15.7478
15.7402
15.7324
15.7245
15.7164
15.7081
15.6997
15.6912
15.6826
15.6739
15.6651
15.6564
15.6475
15.6387
15.6298
15.621
15.6121
15.6033
15.5944
15.5856
15.5769
15.5681
15.5594
15.5507
15.542
15.5332
15.5244
15.5154
15.5062
15.4967
15.4866
15.4757
15.4636
15.4498
15.4334
15.4131
15.3864
15.3521
15.2965
-3.10494
-3.12354
-3.16362
-3.23558
-3.33447
-3.45708
-3.60206
-3.7682
-3.95424
-4.15897
-4.38128
-4.62018
-4.87475
-5.14417
-5.42772
-5.72471
-6.03452
-6.35653
-6.6901
-7.03457
-7.38918
-7.75307
-8.12527
-8.50461
-8.88974
-9.27911
-9.67089
-10.063
-10.4531
-10.8385
-11.2161
-11.5826
-11.9343
-12.2669
-12.5758
-12.8561
-13.1025
-13.3098
-13.4714
-13.5721
-13.602
-13.5594
-13.4391
-13.2304
-12.919
-12.4881
-11.9199
-11.1981
-10.3132
-9.26612
-8.07091
-6.75369
-5.34902
-3.89516
-2.43011
-0.987441
0.405788
1.72954
2.97047
4.12112
5.17873
6.14408
7.02048
7.81293
8.52737
9.17023
9.74797
10.2669
10.733
11.1519
11.5285
11.8676
12.1732
12.4492
12.6987
12.9248
13.13
13.3168
13.4871
13.6428
13.7855
13.9166
14.0375
14.1492
14.2527
14.3489
14.4387
14.5225
14.6012
14.6751
14.7449
14.8108
14.8732
14.9325
14.989
15.0427
15.094
15.143
15.1898
15.2346
15.2774
15.3183
15.3573
15.3946
15.4302
15.464
15.4961
15.5265
15.5552
15.5822
15.6076
15.6313
15.6534
15.6738
15.6927
15.71
15.7257
15.7399
15.7526
15.7638
15.7736
15.782
15.789
15.7948
15.7994
15.8028
15.8051
15.8064
15.8067
15.8061
15.8046
15.8024
15.7995
15.796
15.7918
15.7871
15.782
15.7764
15.7703
15.7639
15.7572
15.7502
15.7428
15.7353
15.7275
15.7195
15.7113
15.7029
15.6944
15.6857
15.6769
15.6681
15.6592
15.6502
15.6412
15.6322
15.6232
15.6141
15.605
15.596
15.5869
15.5779
15.5689
15.5598
15.5508
15.5417
15.5326
15.5233
15.5138
15.5039
15.4935
15.4824
15.4702
15.4565
15.4407
15.4217
15.3982
15.3678
15.3294
15.2701
-3.10765
-3.10609
-3.12902
-3.19087
-3.28243
-3.39861
-3.53783
-3.69878
-3.88014
-4.0807
-4.29935
-4.53508
-4.78698
-5.05422
-5.33599
-5.63158
-5.94031
-6.26152
-6.59451
-6.93856
-7.29287
-7.65655
-8.02856
-8.40772
-8.79265
-9.18173
-9.57313
-9.96472
-10.3541
-10.7385
-11.115
-11.48
-11.8299
-12.1604
-12.467
-12.7447
-12.9889
-13.1949
-13.3547
-13.4509
-13.4775
-13.437
-13.3214
-13.1182
-12.812
-12.385
-11.8188
-11.0972
-10.2108
-9.16087
-7.96161
-6.6398
-5.23133
-3.77614
-2.31326
-0.876975
0.505379
1.81404
3.03641
4.16602
5.20121
6.14385
6.99822
7.77005
8.46584
9.09231
9.65613
10.1636
10.6206
11.0325
11.4043
11.7402
12.0442
12.3198
12.57
12.7977
13.0053
13.195
13.3686
13.528
13.6746
13.8097
13.9347
14.0505
14.1581
14.2583
14.352
14.4397
14.522
14.5995
14.6727
14.7419
14.8074
14.8697
14.9289
14.9853
15.0391
15.0905
15.1396
15.1865
15.2314
15.2742
15.3152
15.3543
15.3915
15.4269
15.4606
15.4925
15.5227
15.5512
15.5779
15.603
15.6264
15.6482
15.6684
15.687
15.704
15.7195
15.7335
15.746
15.757
15.7667
15.775
15.7821
15.7879
15.7925
15.796
15.7984
15.7998
15.8003
15.7999
15.7987
15.7967
15.794
15.7907
15.7868
15.7823
15.7773
15.7718
15.7659
15.7595
15.7528
15.7457
15.7384
15.7307
15.7228
15.7146
15.7063
15.6977
15.689
15.6801
15.6712
15.6621
15.653
15.6438
15.6346
15.6254
15.6161
15.6068
15.5975
15.5882
15.5789
15.5696
15.5603
15.5509
15.5415
15.532
15.5222
15.5122
15.5017
15.4905
15.4784
15.465
15.4498
15.4321
15.4107
15.3844
15.3508
15.3088
15.2463
-2.98868
-2.97156
-2.98179
-3.03531
-3.12004
-3.23021
-3.36423
-3.52071
-3.69827
-3.89569
-4.11186
-4.34574
-4.59639
-4.86288
-5.14438
-5.44005
-5.74914
-6.07087
-6.40446
-6.74912
-7.10395
-7.46801
-7.84019
-8.21925
-8.60376
-8.99207
-9.38229
-9.77228
-10.1596
-10.5415
-10.9149
-11.2764
-11.6223
-11.9486
-12.2507
-12.5242
-12.7649
-12.9683
-13.1221
-13.2131
-13.2391
-13.1993
-13.0836
-12.8783
-12.5667
-12.131
-11.5535
-10.8202
-9.92379
-8.86789
-7.66824
-6.35229
-4.95597
-3.51891
-2.0795
-0.671108
0.679934
1.955
3.14269
4.23767
5.23935
6.1505
6.97606
7.72222
8.39571
9.00333
9.55163
10.0467
10.4943
10.8993
11.2663
11.5995
11.9024
12.1783
12.4299
12.6599
12.8705
13.0637
13.2414
13.405
13.5561
13.6958
13.8254
13.9459
14.0581
14.1628
14.2608
14.3528
14.4393
14.5207
14.5976
14.6704
14.7393
14.8048
14.8671
14.9264
14.983
15.0369
15.0884
15.1376
15.1847
15.2296
15.2724
15.3133
15.3523
15.3894
15.4247
15.4581
15.4898
15.5196
15.5478
15.5742
15.599
15.6221
15.6435
15.6634
15.6817
15.6985
15.7137
15.7275
15.7399
15.7508
15.7605
15.7688
15.7759
15.7818
15.7865
15.7901
15.7928
15.7944
15.7951
15.7949
15.7939
15.7921
15.7896
15.7864
15.7826
15.7782
15.7733
15.7678
15.7618
15.7554
15.7486
15.7414
15.7339
15.7261
15.718
15.7096
15.701
15.6922
15.6833
15.6742
15.665
15.6557
15.6464
15.637
15.6275
15.618
15.6085
15.599
15.5895
15.5799
15.5703
15.5607
15.5511
15.5413
15.5314
15.5212
15.5107
15.4996
15.4877
15.4747
15.4601
15.4435
15.4241
15.4006
15.3718
15.3353
15.2903
15.2251
-2.76574
-2.73708
-2.73809
-2.78459
-2.86288
-2.96726
-3.09634
-3.24877
-3.42318
-3.61833
-3.83312
-4.06645
-4.31729
-4.58463
-4.86747
-5.16488
-5.47594
-5.79974
-6.13537
-6.4819
-6.83836
-7.20368
-7.57668
-7.95607
-8.34034
-8.7278
-9.11652
-9.50435
-9.88883
-10.2672
-10.6365
-10.9934
-11.3342
-11.6551
-11.9519
-12.221
-12.4593
-12.6591
-12.804
-12.8866
-12.9093
-12.8644
-12.7395
-12.5195
-12.1877
-11.7274
-11.1235
-10.3655
-9.45082
-8.38655
-7.19098
-5.89225
-4.52526
-3.12752
-1.73475
-0.37758
0.920201
2.14212
3.27849
4.3253
5.28285
6.15451
6.9455
7.66206
8.31076
8.89811
9.43028
9.91297
10.3513
10.75
11.1131
11.4443
11.747
12.0239
12.2778
12.511
12.7254
12.923
13.1053
13.274
13.4302
13.5752
13.7101
13.8357
13.9531
14.0628
14.1657
14.2624
14.3533
14.4391
14.5201
14.5968
14.6695
14.7384
14.804
14.8664
14.9259
14.9826
15.0367
15.0883
15.1375
15.1845
15.2294
15.2722
15.3129
15.3517
15.3885
15.4235
15.4566
15.4879
15.5174
15.5451
15.5711
15.5955
15.6182
15.6393
15.6588
15.6768
15.6932
15.7083
15.7219
15.7341
15.745
15.7546
15.7629
15.7701
15.7761
15.781
15.7849
15.7877
15.7895
15.7904
15.7904
15.7895
15.7879
15.7855
15.7825
15.7787
15.7743
15.7693
15.7638
15.7577
15.7512
15.7442
15.7368
15.7291
15.7211
15.7127
15.7041
15.6953
15.6863
15.6771
15.6678
15.6584
15.6489
15.6393
15.6296
15.6199
15.6102
15.6005
15.5907
15.5809
15.5711
15.5612
15.5513
15.5412
15.5309
15.5204
15.5093
15.4977
15.4851
15.4713
15.4558
15.4379
15.4168
15.3915
15.3605
15.3216
15.2739
15.2064
-2.4623
-2.4242
-2.41688
-2.45596
-2.52709
-2.62506
-2.74886
-2.89726
-3.06896
-3.26275
-3.47743
-3.71178
-3.9646
-4.23469
-4.52086
-4.82197
-5.13689
-5.46453
-5.80382
-6.15369
-6.51303
-6.88067
-7.25536
-7.63572
-8.02021
-8.40712
-8.7945
-9.18018
-9.56175
-9.93653
-10.3016
-10.6537
-10.9895
-11.3053
-11.5979
-11.8647
-12.1007
-12.2893
-12.4198
-12.4932
-12.5043
-12.4417
-12.2916
-12.0389
-11.6682
-11.1654
-10.5199
-9.72659
-8.78826
-7.71685
-6.53334
-5.26611
-3.94796
-2.61257
-1.29105
-0.00948673
1.21239
2.3613
3.4298
4.4153
5.31885
6.14397
6.89573
7.57988
8.20239
8.7691
9.28547
9.75652
10.1868
10.5803
10.9408
11.2714
11.5751
11.8545
12.1119
12.3493
12.5687
12.7717
12.9598
13.1344
13.2967
13.4478
13.5887
13.7203
13.8434
13.9588
14.0671
14.1689
14.2648
14.3553
14.4408
14.5217
14.5983
14.6711
14.7402
14.8059
14.8684
14.928
14.9847
15.0389
15.0904
15.1396
15.1865
15.2312
15.2737
15.3141
15.3526
15.389
15.4235
15.4562
15.487
15.516
15.5432
15.5687
15.5926
15.6148
15.6355
15.6546
15.6722
15.6883
15.7031
15.7165
15.7286
15.7394
15.7489
15.7573
15.7645
15.7707
15.7757
15.7797
15.7826
15.7846
15.7857
15.7858
15.7851
15.7836
15.7812
15.7782
15.7744
15.7699
15.7648
15.7592
15.753
15.7463
15.7391