/*--------------------------------*- C++ -*----------------------------------*\
| =========                 |                                                 |
| \\      /  F ield         | OpenFOAM: The Open Source CFD Toolbox           |
|  \\    /   O peration     | Version:  1.4.2                                 |
|   \\  /    A nd           | Web:      http://www.openfoam.org               |
|    \\/     M anipulation  |                                                 |
\*---------------------------------------------------------------------------*/
FoamFile
{
    version     2.0;
    format      ascii;
    class       surfaceScalarField;
    object      phi;
    location    "100";
}
// * * * * * * * * * * * * * * * * * * * * * * * * * * * * * * * * * * * * * //

dimensions      [0 3 -1 0 0 0 0];

internalField   nonuniform List<scalar> 
24170
(
3.05242e-06
8.14767e-08
3.00982e-06
4.26181e-08
2.98377e-06
2.60535e-08
2.95938e-06
2.44008e-08
2.9355e-06
2.38695e-08
2.91473e-06
2.077e-08
2.89804e-06
1.66916e-08
2.88539e-06
1.26503e-08
2.87636e-06
9.03597e-09
2.87044e-06
5.9235e-09
2.86714e-06
3.30239e-09
2.86606e-06
1.07595e-09
2.86687e-06
-8.11351e-10
2.86932e-06
-2.44348e-09
2.87324e-06
-3.92757e-09
2.87876e-06
-5.51675e-09
2.88675e-06
-7.98828e-09
-1.1691e-08
2.89844e-06
3.45641e-06
8.15011e-08
3.4388e-06
6.02277e-08
3.4184e-06
4.64428e-08
3.39976e-06
4.30355e-08
3.38355e-06
4.00848e-08
3.36984e-06
3.44806e-08
3.35888e-06
2.76532e-08
3.35077e-06
2.07626e-08
3.3454e-06
1.43883e-08
3.34259e-06
8.74051e-09
3.34205e-06
3.8307e-09
3.34354e-06
-4.03319e-10
3.34679e-06
-4.0581e-09
3.35161e-06
-7.27195e-09
3.35793e-06
-1.02472e-08
3.36577e-06
-1.33517e-08
3.37598e-06
-1.81984e-08
-2.43981e-08
3.38869e-06
3.8181e-06
7.55971e-08
3.80914e-06
6.91899e-08
3.79536e-06
6.0223e-08
3.78218e-06
5.62164e-08
3.77095e-06
5.13096e-08
3.76175e-06
4.36798e-08
3.75473e-06
3.46757e-08
3.74999e-06
2.55059e-08
3.74752e-06
1.68604e-08
3.74721e-06
9.04367e-09
3.74891e-06
2.13432e-09
3.75241e-06
-3.9019e-09
3.75751e-06
-9.1632e-09
3.76406e-06
-1.38165e-08
3.77194e-06
-1.81334e-08
3.78112e-06
-2.25341e-08
3.79143e-06
-2.85068e-08
-3.55697e-08
3.8026e-06
4.21085e-06
6.93105e-08
4.20569e-06
7.43438e-08
4.19592e-06
6.99954e-08
4.18639e-06
6.57522e-08
4.17854e-06
5.91525e-08
4.17254e-06
4.96861e-08
4.16846e-06
3.87554e-08
4.16637e-06
2.75916e-08
4.16628e-06
1.69511e-08
4.16811e-06
7.21445e-09
4.17173e-06
-1.48372e-09
4.17697e-06
-9.14165e-09
4.18366e-06
-1.58548e-08
4.19164e-06
-2.17966e-08
4.20077e-06
-2.7259e-08
4.21088e-06
-3.26451e-08
4.22146e-06
-3.90916e-08
-4.63249e-08
4.23222e-06
4.64297e-06
6.36473e-08
4.64007e-06
7.7242e-08
4.63331e-06
7.67596e-08
4.62667e-06
7.2386e-08
4.62155e-06
6.42818e-08
4.61813e-06
5.31052e-08
4.61648e-06
4.03958e-08
4.61666e-06
2.7417e-08
4.61864e-06
1.49751e-08
4.62234e-06
3.50756e-09
4.62766e-06
-6.79968e-09
4.63443e-06
-1.59156e-08
4.6425e-06
-2.39237e-08
4.65169e-06
-3.09898e-08
4.66183e-06
-3.73982e-08
4.67269e-06
-4.35025e-08
4.68371e-06
-5.01116e-08
-5.71648e-08
4.69455e-06
5.11936e-06
5.88835e-08
5.11809e-06
7.85104e-08
5.11389e-06
8.09651e-08
5.10984e-06
7.64287e-08
5.10714e-06
6.69832e-08
5.10602e-06
5.4221e-08
5.10656e-06
3.98629e-08
5.10875e-06
2.52197e-08
5.11259e-06
1.11442e-08
5.11797e-06
-1.88074e-09
5.1248e-06
-1.36242e-08
5.13291e-06
-2.40314e-08
5.14215e-06
-3.31648e-08
5.15234e-06
-4.11825e-08
5.16329e-06
-4.8341e-08
5.17473e-06
-5.49494e-08
5.1862e-06
-6.1574e-08
-6.83244e-08
5.19736e-06
5.64489e-06
5.50019e-08
5.64497e-06
7.843e-08
5.64309e-06
8.28456e-08
5.64148e-06
7.80391e-08
5.64108e-06
6.73865e-08
5.64212e-06
5.31785e-08
5.64467e-06
3.73157e-08
5.64872e-06
2.11671e-08
5.65423e-06
5.62996e-09
5.66112e-06
-8.77099e-09
5.66927e-06
-2.17682e-08
5.67852e-06
-3.32827e-08
5.68872e-06
-4.33604e-08
5.69968e-06
-5.21458e-08
5.71121e-06
-5.98677e-08
5.72306e-06
-6.68027e-08
5.73485e-06
-7.33664e-08
-7.97751e-08
5.7463e-06
4.40846e-06
5.26506e-08
4.40927e-06
7.76223e-08
4.40925e-06
8.28679e-08
4.40949e-06
7.78021e-08
4.41052e-06
6.63491e-08
4.4125e-06
5.12017e-08
4.41546e-06
3.43579e-08
4.41939e-06
1.7237e-08
4.42425e-06
7.64794e-10
4.42999e-06
-1.45032e-08
4.4365e-06
-2.8282e-08
4.44369e-06
-4.04707e-08
4.45144e-06
-5.11079e-08
4.45962e-06
-6.03288e-08
4.4681e-06
-6.83477e-08
4.47672e-06
-7.54211e-08
4.48526e-06
-8.19037e-08
-8.80428e-08
4.49352e-06
5.14214e-06
5.03609e-08
5.14373e-06
7.60355e-08
5.14489e-06
8.17082e-08
5.14641e-06
7.62801e-08
5.14873e-06
6.40369e-08
5.15195e-06
4.79737e-08
5.15613e-06
3.01821e-08
5.16124e-06
1.21301e-08
5.16723e-06
-5.22926e-09
5.17404e-06
-2.13099e-08
5.18156e-06
-3.58055e-08
5.18969e-06
-4.86005e-08
5.19831e-06
-5.97245e-08
5.20728e-06
-6.93027e-08
5.21647e-06
-7.75409e-08
5.22573e-06
-8.46813e-08
5.23487e-06
-9.10353e-08
-9.68647e-08
5.24369e-06
5.99812e-06
4.80333e-08
6.00065e-06
7.35116e-08
6.00317e-06
7.91822e-08
6.00617e-06
7.32784e-08
6.00993e-06
6.02763e-08
6.01455e-06
4.33582e-08
6.02003e-06
2.46988e-08
6.02636e-06
5.7999e-09
6.03348e-06
-1.23477e-08
6.04131e-06
-2.91391e-08
6.04975e-06
-4.42447e-08
6.05869e-06
-5.75391e-08
6.068e-06
-6.90392e-08
6.07756e-06
-7.8867e-08
6.08724e-06
-8.722e-08
6.0969e-06
-9.43329e-08
6.10635e-06
-1.00487e-07
-1.05932e-07
6.11541e-06
6.9968e-06
4.5503e-08
7.00041e-06
6.98939e-08
7.00448e-06
7.51111e-08
7.00915e-06
6.86161e-08
7.01452e-06
5.49049e-08
7.02064e-06
3.72388e-08
7.02749e-06
1.78428e-08
7.03505e-06
-1.75183e-09
7.04323e-06
-2.05338e-08
7.05197e-06
-3.78765e-08
7.06116e-06
-5.3434e-08
7.07069e-06
-6.70688e-08
7.08044e-06
-7.87911e-08
7.09029e-06
-8.872e-08
7.10012e-06
-9.70466e-08
7.10979e-06
-1.04001e-07
7.11914e-06
-1.0984e-07
-1.14786e-07
7.12799e-06
8.16196e-06
4.25523e-08
8.16683e-06
6.50312e-08
8.17259e-06
6.93458e-08
8.17907e-06
6.21438e-08
8.18617e-06
4.77994e-08
8.19387e-06
2.95444e-08
8.2021e-06
9.60891e-09
8.21081e-06
-1.04649e-08
8.21993e-06
-2.96562e-08
8.22938e-06
-4.73232e-08
8.23906e-06
-6.31106e-08
8.24886e-06
-7.68694e-08
8.25867e-06
-8.8607e-08
8.26839e-06
-9.84388e-08
8.2779e-06
-1.06551e-07
8.28706e-06
-1.13167e-07
8.29575e-06
-1.18525e-07
-1.2282e-07
8.30378e-06
9.52134e-06
3.89365e-08
9.5276e-06
5.87783e-08
9.53516e-06
6.17793e-08
9.54353e-06
5.37755e-08
9.55242e-06
3.89075e-08
9.56169e-06
2.02781e-08
9.57122e-06
7.53713e-11
9.58094e-06
-2.01822e-08
9.59076e-06
-3.94787e-08
9.60061e-06
-5.71705e-08
9.6104e-06
-7.28953e-08
9.62003e-06
-8.6499e-08
9.6294e-06
-9.79852e-08
9.63843e-06
-1.07465e-07
9.647e-06
-1.15122e-07
9.655e-06
-1.2117e-07
9.66232e-06
-1.25834e-07
-1.29291e-07
9.66879e-06
1.11072e-05
3.44219e-08
1.1115e-05
5.1019e-08
1.11244e-05
5.23713e-08
1.11346e-05
4.35196e-08
1.11453e-05
2.82852e-08
1.1156e-05
9.56353e-09
1.11666e-05
-1.05591e-08
1.11771e-05
-3.06238e-08
1.11872e-05
-4.96407e-08
1.1197e-05
-6.69797e-08
1.12064e-05
-8.22788e-08
1.12153e-05
-9.53831e-08
1.12236e-05
-1.06291e-07
1.12312e-05
-1.15111e-07
1.12381e-05
-1.22021e-07
1.12442e-05
-1.2723e-07
1.12493e-05
-1.30954e-07
-1.33365e-07
1.12534e-05
1.29572e-05
2.88373e-08
1.29665e-05
4.17094e-08
1.29777e-05
4.11807e-08
1.29897e-05
3.15107e-08
1.30019e-05
1.61365e-08
1.30138e-05
-2.31872e-09
1.30251e-05
-2.19328e-08
1.30359e-05
-4.13453e-08
1.30458e-05
-5.96225e-08
1.3055e-05
-7.61602e-08
1.30633e-05
-9.06071e-08
1.30708e-05
-1.0281e-07
1.30772e-05
-1.12765e-07
1.30827e-05
-1.20576e-07
1.30871e-05
-1.26415e-07
1.30904e-05
-1.3049e-07
1.30924e-05
-1.33014e-07
-1.34173e-07
1.30932e-05
1.51151e-05
2.21495e-08
1.51259e-05
3.09242e-08
1.51387e-05
2.84007e-08
1.51522e-05
1.80486e-08
1.51655e-05
2.85293e-09
1.5178e-05
-1.48919e-08
1.51896e-05
-3.34891e-08
1.52e-05
-5.17177e-08
1.52091e-05
-6.87294e-08
1.52169e-05
-8.39623e-08
1.52233e-05
-9.7086e-08
1.52285e-05
-1.07952e-07
1.52323e-05
-1.16554e-07
1.52347e-05
-1.2299e-07
1.52357e-05
-1.27432e-07
1.52353e-05
-1.30085e-07
1.52335e-05
-1.3117e-07
-1.30891e-07
1.52302e-05
1.76321e-05
1.45083e-08
1.76441e-05
1.89066e-08
1.76581e-05
1.43949e-08
1.76725e-05
3.62282e-09
1.76863e-05
-1.0957e-08
1.76989e-05
-2.74499e-08
1.77099e-05
-4.44406e-08
1.7719e-05
-6.08931e-08
1.77264e-05
-7.60688e-08
1.77319e-05
-8.94672e-08
1.77356e-05
-1.00785e-07
1.77375e-05
-1.09881e-07
1.77377e-05
-1.16749e-07
1.77362e-05
-1.2148e-07
1.7733e-05
-1.2424e-07
1.77281e-05
-1.25236e-07
1.77217e-05
-1.24695e-07
-1.22846e-07
1.77136e-05
1.78334e-05
7.27792e-09
1.78447e-05
7.65521e-09
1.78576e-05
1.51744e-09
1.78704e-05
-9.26623e-09
1.78823e-05
-2.28205e-08
1.78925e-05
-3.76729e-08
1.79008e-05
-5.27049e-08
1.7907e-05
-6.7076e-08
1.79111e-05
-8.01638e-08
1.79131e-05
-9.15319e-08
1.79133e-05
-1.00905e-07
1.79115e-05
-1.0815e-07
1.7908e-05
-1.13255e-07
1.79029e-05
-1.16303e-07
1.78961e-05
-1.17449e-07
1.78877e-05
-1.16897e-07
1.78779e-05
-1.14877e-07
-1.11633e-07
1.78667e-05
1.58873e-05
1.29694e-09
1.58966e-05
-1.62543e-09
1.5907e-05
-8.84573e-09
1.59169e-05
-1.92541e-08
1.59257e-05
-3.15482e-08
1.59326e-05
-4.46466e-08
1.59376e-05
-5.77014e-08
1.59406e-05
-7.00436e-08
1.59416e-05
-8.11549e-08
1.59407e-05
-9.06525e-08
1.59381e-05
-9.82851e-08
1.59339e-05
-1.03924e-07
1.59282e-05
-1.07549e-07
1.59211e-05
-1.09232e-07
1.59128e-05
-1.09115e-07
1.59033e-05
-1.07393e-07
1.58927e-05
-1.04291e-07
-1.00059e-07
1.58811e-05
1.41538e-05
-3.80415e-09
1.41616e-05
-9.46455e-09
1.417e-05
-1.72841e-08
1.41778e-05
-2.69971e-08
1.41841e-05
-3.78598e-08
1.41886e-05
-4.91513e-08
1.41912e-05
-6.02626e-08
1.41918e-05
-7.06727e-08
1.41906e-05
-7.9949e-08
1.41877e-05
-8.77557e-08
1.41833e-05
-9.38618e-08
1.41775e-05
-9.81412e-08
1.41705e-05
-1.00567e-07
1.41625e-05
-1.01196e-07
1.41535e-05
-1.00158e-07
1.41437e-05
-9.76307e-08
1.41333e-05
-9.38331e-08
-8.90104e-08
1.41222e-05
1.26096e-05
-8.3821e-09
1.26164e-05
-1.63088e-08
1.26234e-05
-2.42666e-08
1.26294e-05
-3.29973e-08
1.26339e-05
-4.22965e-08
1.26365e-05
-5.17632e-08
1.26372e-05
-6.09857e-08
1.26361e-05
-6.95642e-08
1.26333e-05
-7.71388e-08
1.26289e-05
-8.34147e-08
1.26233e-05
-8.81806e-08
1.26164e-05
-9.13152e-08
1.26087e-05
-9.27857e-08
1.26001e-05
-9.26364e-08
1.25909e-05
-9.0979e-08
1.25813e-05
-8.79761e-08
1.25713e-05
-8.38305e-08
-7.87778e-08
1.2561e-05
1.12342e-05
-1.2755e-08
1.12404e-05
-2.24947e-08
1.12462e-05
-3.01007e-08
1.12508e-05
-3.75791e-08
1.12537e-05
-4.52216e-08
1.12548e-05
-5.28751e-08
1.12541e-05
-6.02771e-08
1.12517e-05
-6.7121e-08
1.12476e-05
-7.31083e-08
1.12422e-05
-7.79854e-08
1.12356e-05
-8.15637e-08
1.1228e-05
-8.37301e-08
1.12197e-05
-8.44472e-08
1.12108e-05
-8.37463e-08
1.12015e-05
-8.17209e-08
1.1192e-05
-7.85133e-08
1.11825e-05
-7.43074e-08
-6.93251e-08
1.11731e-05
1.00091e-05
-1.72358e-08
1.00148e-05
-2.82362e-08
1.00197e-05
-3.49204e-08
1.0023e-05
-4.08937e-08
1.00246e-05
-4.68364e-08
1.00244e-05
-5.27279e-08
1.00226e-05
-5.83951e-08
1.0019e-05
-6.36003e-08
1.0014e-05
-6.81023e-08
1.00077e-05
-7.16919e-08
1.00004e-05
-7.42075e-08
9.9922e-06
-7.55477e-08
9.98342e-06
-7.56719e-08
9.97427e-06
-7.45999e-08
9.96496e-06
-7.24035e-08
9.95564e-06
-6.92012e-08
9.94649e-06
-6.51553e-08
-6.04734e-08
9.93764e-06
8.91801e-06
-2.21478e-08
8.92338e-06
-3.36079e-08
8.92715e-06
-3.86867e-08
8.92919e-06
-4.29379e-08
8.92957e-06
-4.72081e-08
8.92828e-06
-5.1439e-08
8.92536e-06
-5.54802e-08
8.92091e-06
-5.91491e-08
8.91507e-06
-6.22649e-08
8.90805e-06
-6.46676e-08
8.90007e-06
-6.62279e-08
8.89138e-06
-6.68597e-08
8.88223e-06
-6.65212e-08
8.87285e-06
-6.52179e-08
8.86345e-06
-6.29999e-08
8.8542e-06
-5.99587e-08
8.84528e-06
-5.62301e-08
-5.20068e-08
8.83681e-06
7.94635e-06
-2.7833e-08
7.95127e-06
-3.85264e-08
7.95378e-06
-4.11937e-08
7.95441e-06
-4.35732e-08
7.95349e-06
-4.62875e-08
7.95106e-06
-4.90114e-08
7.94715e-06
-5.15641e-08
7.94182e-06
-5.38163e-08
7.9352e-06
-5.56542e-08
7.92751e-06
-5.69731e-08
7.91896e-06
-5.7682e-08
7.90982e-06
-5.77098e-08
7.90031e-06
-5.70168e-08
7.89069e-06
-5.55942e-08
7.88116e-06
-5.34686e-08
7.8719e-06
-5.07018e-08
7.86307e-06
-4.73968e-08
-4.37269e-08
7.85479e-06
7.0811e-06
-3.46042e-08
7.08527e-06
-4.26955e-08
7.08615e-06
-4.20718e-08
7.08509e-06
-4.25205e-08
7.0827e-06
-4.38934e-08
7.07901e-06
-4.5324e-08
7.07401e-06
-4.65627e-08
7.06774e-06
-4.75442e-08
7.06031e-06
-4.82327e-08
7.05193e-06
-4.85863e-08
7.0428e-06
-4.85547e-08
7.03317e-06
-4.8086e-08
7.0233e-06
-4.71405e-08
7.0134e-06
-4.56967e-08
7.00369e-06
-4.37569e-08
6.99434e-06
-4.13498e-08
6.98548e-06
-3.85424e-08
-3.54747e-08
6.97723e-06
6.31055e-06
-4.2637e-08
6.31334e-06
-4.54887e-08
6.31201e-06
-4.07389e-08
6.30879e-06
-3.93063e-08
6.30455e-06
-3.96559e-08
6.29929e-06
-4.00654e-08
6.29294e-06
-4.02037e-08
6.28549e-06
-4.01009e-08
6.27707e-06
-3.98093e-08
6.26784e-06
-3.93553e-08
6.25801e-06
-3.87279e-08
6.24782e-06
-3.78932e-08
6.23749e-06
-3.6811e-08
6.22724e-06
-3.54475e-08
6.21727e-06
-3.37822e-08
6.20773e-06
-3.18119e-08
6.19875e-06
-2.95644e-08
-2.71254e-08
6.1904e-06
5.62394e-06
-5.16811e-08
5.62399e-06
-4.55348e-08
5.61938e-06
-3.61265e-08
5.61305e-06
-3.29829e-08
5.60615e-06
-3.27491e-08
5.59857e-06
-3.24875e-08
5.59019e-06
-3.18228e-08
5.58101e-06
-3.09163e-08
5.57111e-06
-2.99141e-08
5.56066e-06
-2.89021e-08
5.54984e-06
-2.79037e-08
5.53884e-06
-2.68957e-08
5.52786e-06
-2.5837e-08
5.5171e-06
-2.46849e-08
5.50672e-06
-2.34004e-08
5.49686e-06
-2.1955e-08
5.48764e-06
-2.03384e-08
-1.85639e-08
5.47907e-06
5.00896e-06
-5.833e-08
5.00194e-06
-3.85197e-08
4.99099e-06
-2.51789e-08
4.97906e-06
-2.10515e-08
4.96734e-06
-2.10352e-08
4.95553e-06
-2.06825e-08
4.94349e-06
-1.97837e-08
4.93122e-06
-1.86435e-08
4.91878e-06
-1.74774e-08
4.90628e-06
-1.63983e-08
4.89382e-06
-1.54458e-08
4.88152e-06
-1.46028e-08
4.86952e-06
-1.38322e-08
4.85793e-06
-1.30937e-08
4.84687e-06
-1.23438e-08
4.83646e-06
-1.15458e-08
4.82679e-06
-1.06617e-08
-9.61026e-09
4.81783e-06
4.39822e-06
4.3597e-06
4.33453e-06
4.31348e-06
4.29244e-06
4.27176e-06
4.25198e-06
4.23334e-06
4.21586e-06
4.19946e-06
4.18401e-06
4.16941e-06
4.15558e-06
4.14248e-06
4.13014e-06
4.11859e-06
4.10793e-06
4.09832e-06
-6.66298e-08
6.66234e-08
-2.2499e-07
1.58368e-07
-4.23066e-07
1.98086e-07
-6.35805e-07
2.12742e-07
-8.53085e-07
2.1728e-07
-1.07086e-06
2.17769e-07
-1.28718e-06
2.16311e-07
-1.50088e-06
2.13694e-07
-1.71116e-06
2.10286e-07
-1.91747e-06
2.06302e-07
-2.11936e-06
2.01894e-07
-2.31654e-06
1.97177e-07
-2.50878e-06
1.92247e-07
-2.69596e-06
1.87178e-07
-2.87799e-06
1.82032e-07
-3.05484e-06
1.76854e-07
-3.22652e-06
1.71678e-07
-3.39304e-06
1.66523e-07
-3.55444e-06
1.61401e-07
-3.71075e-06
1.56309e-07
-3.86199e-06
1.51238e-07
-4.00816e-06
1.46168e-07
-4.14923e-06
1.41075e-07
-4.28516e-06
1.35927e-07
-4.41585e-06
1.30689e-07
-4.54117e-06
1.25319e-07
-4.66095e-06
1.19774e-07
-4.77495e-06
1.14004e-07
-4.88292e-06
1.07962e-07
-4.98451e-06
1.01597e-07
-5.07937e-06
9.48546e-08
-5.16705e-06
8.76803e-08
-5.24707e-06
8.00191e-08
-5.31889e-06
7.18175e-08
-5.38191e-06
6.30242e-08
-5.43551e-06
5.35911e-08
-5.47898e-06
4.34732e-08
-5.51162e-06
3.26286e-08
-5.53264e-06
2.10247e-08
-5.54129e-06
8.64975e-09
-5.5368e-06
-4.4957e-09
-5.51842e-06
-1.83714e-08
-5.48553e-06
-3.28849e-08
-5.4376e-06
-4.79294e-08
-5.37424e-06
-6.33618e-08
-5.29523e-06
-7.90106e-08
-5.20055e-06
-9.46796e-08
-5.0904e-06
-1.10153e-07
-4.9652e-06
-1.25201e-07
-4.82561e-06
-1.39591e-07
-4.67252e-06
-1.53093e-07
-4.50704e-06
-1.65491e-07
-4.33045e-06
-1.76591e-07
-4.14423e-06
-1.8623e-07
-3.94995e-06
-1.94285e-07
-3.74927e-06
-2.00676e-07
-3.54391e-06
-2.05363e-07
-3.33557e-06
-2.0835e-07
-3.12588e-06
-2.09687e-07
-2.91642e-06
-2.09459e-07
-2.70863e-06
-2.07785e-07
-2.50382e-06
-2.04804e-07
-2.30314e-06
-2.00677e-07
-2.10757e-06
-1.95571e-07
-1.91792e-06
-1.89655e-07
-1.73483e-06
-1.83093e-07
-1.55878e-06
-1.76042e-07
-1.39014e-06
-1.68646e-07
-1.2291e-06
-1.61042e-07
-1.07575e-06
-1.53348e-07
-9.3009e-07
-1.4566e-07
-7.92022e-07
-1.38064e-07
-6.61399e-07
-1.30617e-07
-5.38026e-07
-1.23372e-07
-4.21672e-07
-1.16357e-07
-3.12069e-07
-1.09607e-07
-2.08833e-07
-1.03239e-07
-1.11215e-07
-9.76213e-08
-1.84597e-08
-9.27582e-08
6.94875e-08
-8.79511e-08
1.52676e-07
-8.31917e-08
2.3108e-07
-7.84086e-08
3.0494e-07
-7.38659e-08
3.74561e-07
-6.96262e-08
4.40266e-07
-6.57107e-08
5.02381e-07
-6.21234e-08
5.61235e-07
-5.88597e-08
6.17138e-07
-5.59063e-08
6.70387e-07
-5.32481e-08
7.21259e-07
-5.08702e-08
7.70011e-07
-4.8753e-08
8.16888e-07
-4.68763e-08
8.62116e-07
-4.52228e-08
9.05897e-07
-4.3775e-08
9.48415e-07
-4.25153e-08
9.89844e-07
-4.14272e-08
1.03034e-06
-4.04943e-08
1.07004e-06
-3.97007e-08
1.10908e-06
-3.90318e-08
1.14755e-06
-3.84727e-08
1.18556e-06
-3.80093e-08
1.22319e-06
-3.76295e-08
1.26051e-06
-3.73226e-08
1.29758e-06
-3.70769e-08
1.33446e-06
-3.68802e-08
1.37118e-06
-3.67209e-08
1.40777e-06
-3.65891e-08
1.44424e-06
-3.64763e-08
1.48061e-06
-3.63741e-08
1.51688e-06
-3.62736e-08
1.55305e-06
-3.61659e-08
1.5891e-06
-3.60447e-08
1.62501e-06
-3.5906e-08
1.66075e-06
-3.57461e-08
1.69631e-06
-3.55589e-08
1.73165e-06
-3.53371e-08
1.76673e-06
-3.50768e-08
1.80151e-06
-3.47778e-08
1.83595e-06
-3.44404e-08
1.87001e-06
-3.40616e-08
1.90364e-06
-3.36352e-08
1.9368e-06
-3.31572e-08
1.96944e-06
-3.26289e-08
2.00149e-06
-3.20534e-08
2.03292e-06
-3.14296e-08
2.06367e-06
-3.07519e-08
2.09369e-06
-3.00148e-08
2.12291e-06
-2.92177e-08
2.15128e-06
-2.83632e-08
2.17873e-06
-2.7451e-08
2.20521e-06
-2.64771e-08
2.23064e-06
-2.54386e-08
2.25498e-06
-2.43376e-08
2.27816e-06
-2.31799e-08
2.30012e-06
-2.19701e-08
2.32083e-06
-2.07107e-08
2.34024e-06
-1.9407e-08
2.3583e-06
-1.80701e-08
2.37501e-06
-1.6713e-08
2.39036e-06
-1.53443e-08
2.40432e-06
-1.39695e-08
2.41692e-06
-1.25986e-08
2.42817e-06
-1.12454e-08
2.43809e-06
-9.91812e-09
2.44671e-06
-8.61845e-09
2.45407e-06
-7.35124e-09
2.4602e-06
-6.12723e-09
2.46514e-06
-4.95091e-09
2.46896e-06
-3.81745e-09
2.4717e-06
-2.73044e-09
2.47342e-06
-1.71392e-09
2.47421e-06
-7.9292e-10
2.47414e-06
6.59463e-11
2.47323e-06
9.15811e-10
2.47149e-06
1.75381e-09
2.46893e-06
2.56598e-09
2.46556e-06
3.37086e-09
2.46138e-06
4.18063e-09
2.4564e-06
4.97691e-09
2.45064e-06
5.76219e-09
2.44411e-06
6.54055e-09
2.43682e-06
7.29592e-09
2.42876e-06
8.04396e-09
2.41993e-06
8.83177e-09
2.41011e-06
9.82555e-09
2.39948e-06
1.06281e-08
2.38815e-06
1.13325e-08
2.37591e-06
1.22424e-08
2.36288e-06
1.30382e-08
2.34909e-06
1.37807e-08
2.33457e-06
1.45208e-08
2.31924e-06
1.53345e-08
2.30295e-06
1.62958e-08
2.28535e-06
1.76012e-08
2.26586e-06
1.95127e-08
2.24333e-06
2.25217e-08
2.21576e-06
2.75733e-08
2.17876e-06
3.69907e-08
2.12164e-06
5.71149e-08
1.18187e-07
2.00345e-06
-1.99726e-07
2.66338e-07
-3.87105e-07
3.45751e-07
-5.7536e-07
3.86348e-07
-7.6973e-07
4.07124e-07
-9.68875e-07
4.16428e-07
-1.17017e-06
4.19066e-07
-1.37144e-06
4.1759e-07
-1.57113e-06
4.13384e-07
-1.7681e-06
4.0726e-07
-1.96155e-06
3.99751e-07
-2.1509e-06
3.9124e-07
-2.33574e-06
3.82016e-07
-2.51581e-06
3.72307e-07
-2.69092e-06
3.62287e-07
-2.86098e-06
3.52093e-07
-3.02595e-06
3.41821e-07
-3.18582e-06
3.31544e-07
-3.3406e-06
3.21302e-07
-3.49031e-06
3.11113e-07
-3.63497e-06
3.00975e-07
-3.7746e-06
2.90866e-07
-3.90918e-06
2.8075e-07
-4.03868e-06
2.70577e-07
-4.16304e-06
2.60287e-07
-4.28217e-06
2.49814e-07
-4.39593e-06
2.39079e-07
-4.50415e-06
2.28001e-07
-4.60664e-06
2.16496e-07
-4.70315e-06
2.04472e-07
-4.79339e-06
1.91837e-07
-4.87703e-06
1.78497e-07
-4.9537e-06
1.64353e-07
-5.02299e-06
1.49308e-07
-5.08444e-06
1.33267e-07
-5.13755e-06
1.16135e-07
-5.18178e-06
9.78239e-08
-5.21655e-06
7.82477e-08
-5.24125e-06
5.73297e-08
-5.25524e-06
3.50104e-08
-5.25784e-06
1.12548e-08
-5.2484e-06
-1.39413e-08
-5.22624e-06
-4.0532e-08
-5.19073e-06
-6.83952e-08
-5.14131e-06
-9.73471e-08
-5.07754e-06
-1.27141e-07
-4.99908e-06
-1.57468e-07
-4.9058e-06
-1.87964e-07
-4.79774e-06
-2.18212e-07
-4.67517e-06
-2.47762e-07
-4.53862e-06
-2.76139e-07
-4.38884e-06
-3.02866e-07
-4.22684e-06
-3.27485e-07
-4.05385e-06
-3.4958e-07
-3.87128e-06
-3.68797e-07
-3.68069e-06
-3.84869e-07
-3.48376e-06
-3.97617e-07
-3.28217e-06
-4.06954e-07
-3.07764e-06
-4.12883e-07
-2.87183e-06
-4.15502e-07
-2.6663e-06
-4.14987e-07
-2.46251e-06
-4.11581e-07
-2.26174e-06
-4.05573e-07
-2.06512e-06
-3.9729e-07
-1.87362e-06
-3.87073e-07
-1.688e-06
-3.75268e-07
-1.50888e-06
-3.62211e-07
-1.33671e-06
-3.48219e-07
-1.17177e-06
-3.33582e-07
-1.01424e-06
-3.1857e-07
-8.64169e-07
-3.03425e-07
-7.21487e-07
-2.88342e-07
-5.86041e-07
-2.73508e-07
-4.57598e-07
-2.5906e-07
-3.35833e-07
-2.45137e-07
-2.20329e-07
-2.31858e-07
-1.10565e-07
-2.19366e-07
-6.00178e-09
-2.07796e-07
9.3005e-08
-1.96621e-07
1.86283e-07
-1.86028e-07
2.74206e-07
-1.75866e-07
3.57085e-07
-1.66066e-07
4.35478e-07
-1.56794e-07
5.09741e-07
-1.48118e-07
5.80201e-07
-1.40075e-07
6.47175e-07
-1.32676e-07
7.10965e-07
-1.2591e-07
7.71866e-07
-1.19756e-07
8.30153e-07
-1.1419e-07
8.86086e-07
-1.0918e-07
9.3991e-07
-1.04694e-07
9.91856e-07
-1.00697e-07
1.04214e-06
-9.7154e-08
1.09095e-06
-9.40304e-08
1.13847e-06
-9.12932e-08
1.18487e-06
-8.89102e-08
1.23029e-06
-8.68492e-08
1.27488e-06
-8.50794e-08
1.31876e-06
-8.35718e-08
1.36203e-06
-8.2298e-08
1.40479e-06
-8.12311e-08
1.44713e-06
-8.03458e-08
1.48911e-06
-7.96183e-08
1.53081e-06
-7.90252e-08
1.57227e-06
-7.85431e-08
1.61353e-06
-7.81498e-08
1.65463e-06
-7.78251e-08
1.6956e-06
-7.75509e-08
1.73643e-06
-7.73103e-08
1.77715e-06
-7.70868e-08
1.81774e-06
-7.68647e-08
1.85821e-06
-7.66296e-08
1.89854e-06
-7.63695e-08
1.93871e-06
-7.60733e-08
1.97869e-06
-7.57306e-08
2.01846e-06
-7.53305e-08
2.05799e-06
-7.48646e-08
2.09724e-06
-7.43272e-08
2.13618e-06
-7.37143e-08
2.17475e-06
-7.30213e-08
2.21294e-06
-7.22418e-08
2.25068e-06
-7.13701e-08
2.28793e-06
-7.04032e-08
2.32464e-06
-6.934e-08
2.36077e-06
-6.81783e-08
2.39625e-06
-6.6913e-08
2.43105e-06
-6.55379e-08
2.46509e-06
-6.40492e-08
2.49832e-06
-6.2445e-08
2.53068e-06
-6.07229e-08
2.5621e-06
-5.88783e-08
2.59253e-06
-5.69066e-08
2.62189e-06
-5.48064e-08
2.65012e-06
-5.2581e-08
2.67717e-06
-5.02359e-08
2.70297e-06
-4.77771e-08
2.72747e-06
-4.52132e-08
2.75062e-06
-4.25578e-08
2.77238e-06
-3.98292e-08
2.79271e-06
-3.70455e-08
2.8116e-06
-3.42227e-08
2.82901e-06
-3.13784e-08
2.84495e-06
-2.85336e-08
2.85942e-06
-2.57078e-08
2.87242e-06
-2.29136e-08
2.88397e-06
-2.01615e-08
2.89408e-06
-1.7464e-08
2.90278e-06
-1.48325e-08
2.91009e-06
-1.22715e-08
2.91606e-06
-9.78461e-09
2.9207e-06
-7.38053e-09
2.92406e-06
-5.07028e-09
2.92614e-06
-2.8669e-09
2.927e-06
-7.74386e-10
2.92668e-06
1.23506e-09
2.92524e-06
3.19375e-09
2.92272e-06
5.10521e-09
2.91915e-06
6.96228e-09
2.91456e-06
8.76513e-09
2.90903e-06
1.05128e-08
2.90258e-06
1.22062e-08
2.89528e-06
1.38463e-08
2.88716e-06
1.54233e-08
2.87826e-06
1.69449e-08
2.86865e-06
1.84389e-08
2.85854e-06
1.99251e-08
2.84801e-06
2.11454e-08
2.83708e-06
2.22618e-08
2.82576e-06
2.35596e-08
2.81395e-06
2.48554e-08
2.80157e-06
2.6163e-08
2.78856e-06
2.75618e-08
2.77474e-06
2.9159e-08
2.7599e-06
3.11473e-08
2.74364e-06
3.38551e-08
2.72538e-06
3.77888e-08
2.70401e-06
4.38757e-08
2.6777e-06
5.38962e-08
2.64303e-06
7.16714e-08
2.59396e-06
1.06196e-07
1.80063e-07
2.5321e-06
-2.01938e-07
4.68284e-07
-3.98892e-07
5.42696e-07
-5.9055e-07
5.78001e-07
-7.80719e-07
5.97288e-07
-9.7041e-07
6.06113e-07
-1.15918e-06
6.0783e-07
-1.34621e-06
6.04624e-07
-1.53075e-06
5.9792e-07
-1.71217e-06
5.8868e-07
-1.89e-06
5.77587e-07
-2.06392e-06
5.65153e-07
-2.23367e-06
5.51774e-07
-2.39912e-06
5.37758e-07
-2.56017e-06
5.23344e-07
-2.71679e-06
5.08713e-07
-2.86896e-06
4.93995e-07
-3.0167e-06
4.79276e-07
-3.16e-06
4.64604e-07
-3.29889e-06
4.49997e-07
-3.43335e-06
4.35437e-07
-3.56337e-06
4.20887e-07
-3.68891e-06
4.06288e-07
-3.8099e-06
3.91567e-07
-3.92625e-06
3.76634e-07
-4.03782e-06
3.6139e-07
-4.14447e-06
3.45726e-07
-4.24599e-06
3.29527e-07
-4.34217e-06
3.12672e-07
-4.43274e-06
2.95038e-07
-4.5174e-06
2.76498e-07
-4.59582e-06
2.56919e-07
-4.66763e-06
2.36169e-07
-4.73245e-06
2.14116e-07
-4.78981e-06
1.9063e-07
-4.83926e-06
1.65581e-07
-4.88027e-06
1.38843e-07
-4.91232e-06
1.10297e-07
-4.93483e-06
7.98379e-08
-4.9472e-06
4.73765e-08
-4.9488e-06
1.28502e-08
-4.93897e-06
-2.37686e-08
-4.91705e-06
-6.24471e-08
-4.88239e-06
-1.03056e-07
-4.83437e-06
-1.45363e-07
-4.77247e-06
-1.89045e-07
-4.69626e-06
-2.33677e-07
-4.60549e-06
-2.78741e-07
-4.50007e-06
-3.23627e-07
-4.38018e-06
-3.6765e-07
-4.24625e-06
-4.10072e-07
-4.09899e-06
-4.50133e-07
-3.93938e-06
-4.87095e-07
-3.76868e-06
-5.20279e-07
-3.58837e-06
-5.4911e-07
-3.40008e-06
-5.73152e-07
-3.20557e-06
-5.92124e-07
-3.00663e-06
-6.05896e-07
-2.80502e-06
-6.14488e-07
-2.60246e-06
-6.18062e-07
-2.40053e-06
-6.1691e-07
-2.20069e-06
-6.11423e-07
-2.0042e-06
-6.02063e-07
-1.81215e-06
-5.89342e-07
-1.62543e-06
-5.73794e-07
-1.44475e-06
-5.55948e-07
-1.27064e-06
-5.36319e-07
-1.10347e-06
-5.15396e-07
-9.43446e-07
-4.93606e-07
-7.9067e-07
-4.71347e-07
-6.45103e-07
-4.48992e-07
-5.06631e-07
-4.26815e-07
-3.75036e-07
-4.05105e-07
-2.50041e-07
-3.84058e-07
-1.31314e-07
-3.63866e-07
-1.83915e-08
-3.44782e-07
8.84957e-08
-3.26255e-07
1.8916e-07
-3.08462e-07
2.84059e-07
-2.91522e-07
3.73517e-07
-2.75488e-07
4.57971e-07
-2.60322e-07
5.37921e-07
-2.46017e-07
6.13761e-07
-2.32636e-07
6.85846e-07
-2.20204e-07
7.54494e-07
-2.08726e-07
8.20006e-07
-1.98189e-07
8.8266e-07
-1.88565e-07
9.42723e-07
-1.79819e-07
1.00044e-06
-1.71909e-07
1.05605e-06
-1.6479e-07
1.10977e-06
-1.58414e-07
1.16181e-06
-1.52732e-07
1.21235e-06
-1.47694e-07
1.26158e-06
-1.43251e-07
1.30964e-06
-1.39354e-07
1.35669e-06
-1.35958e-07
1.40286e-06
-1.33017e-07
1.44827e-06
-1.30488e-07
1.49303e-06
-1.28328e-07
1.53723e-06
-1.26498e-07
1.58096e-06
-1.24959e-07
1.62429e-06
-1.23675e-07
1.66728e-06
-1.22612e-07
1.70999e-06
-1.21735e-07
1.75246e-06
-1.21012e-07
1.79472e-06
-1.20412e-07
1.8368e-06
-1.19907e-07
1.87872e-06
-1.19469e-07
1.92048e-06
-1.19075e-07
1.96209e-06
-1.187e-07
2.00355e-06
-1.18322e-07
2.04485e-06
-1.17923e-07
2.08596e-06
-1.17483e-07
2.12688e-06
-1.16988e-07
2.16757e-06
-1.16422e-07
2.20801e-06
-1.1577e-07
2.24817e-06
-1.15021e-07
2.28801e-06
-1.14168e-07
2.3275e-06
-1.13201e-07
2.36659e-06
-1.12113e-07
2.40524e-06
-1.10895e-07
2.44342e-06
-1.09541e-07
2.48106e-06
-1.08047e-07
2.51813e-06
-1.06408e-07
2.55457e-06
-1.04618e-07
2.59033e-06
-1.0267e-07
2.62535e-06
-1.00557e-07
2.65958e-06
-9.82725e-08
2.69295e-06
-9.58124e-08
2.7254e-06
-9.31704e-08
2.75686e-06
-9.03395e-08
2.78727e-06
-8.73142e-08
2.81655e-06
-8.40936e-08
2.84465e-06
-8.06808e-08
2.8715e-06
-7.70817e-08
2.89702e-06
-7.33048e-08
2.92117e-06
-6.93639e-08
2.94389e-06
-6.5279e-08
2.96513e-06
-6.10743e-08
2.98486e-06
-5.67748e-08
3.00305e-06
-5.24065e-08
3.01967e-06
-4.79987e-08
3.03472e-06
-4.3582e-08
3.04819e-06
-3.91833e-08
3.06011e-06
-3.48253e-08
3.07048e-06
-3.05297e-08
3.07933e-06
-2.63164e-08
3.08669e-06
-2.21987e-08
3.09261e-06
-1.81867e-08
3.09712e-06
-1.42941e-08
3.10027e-06
-1.05345e-08
3.10212e-06
-6.91584e-09
3.1027e-06
-3.44876e-09
3.10207e-06
-1.3352e-10
3.10026e-06
3.04687e-09
3.09734e-06
6.11195e-09
3.09338e-06
9.06781e-09
3.08845e-06
1.19045e-08
3.08259e-06
1.46201e-08
3.07589e-06
1.72165e-08
3.06841e-06
1.96917e-08
3.0602e-06
2.20486e-08
3.05134e-06
2.42873e-08
3.04187e-06
2.64108e-08
3.03188e-06
2.84293e-08
3.02147e-06
3.03381e-08
3.01059e-06
3.20285e-08
2.99927e-06
3.35845e-08
2.98764e-06
3.51771e-08
2.97573e-06
3.67767e-08
2.96347e-06
3.84204e-08
2.95083e-06
4.02107e-08
2.93768e-06
4.2313e-08
2.92384e-06
4.49979e-08
2.909e-06
4.86924e-08
2.89269e-06
5.40976e-08
2.87414e-06
6.24248e-08
2.85216e-06
7.58692e-08
2.82517e-06
9.86597e-08
2.79213e-06
1.39243e-07
2.13068e-07
2.75912e-06
-1.91042e-07
6.59332e-07
-3.7916e-07
7.30816e-07
-5.62248e-07
7.61089e-07
-7.41822e-07
7.76861e-07
-9.18586e-07
7.82876e-07
-1.09263e-06
7.81871e-07
-1.26376e-06
7.75759e-07
-1.43175e-06
7.65911e-07
-1.59639e-06
7.5332e-07
-1.75753e-06
7.38727e-07
-1.91508e-06
7.22696e-07
-2.06897e-06
7.05665e-07
-2.21919e-06
6.87978e-07
-2.36574e-06
6.69895e-07
-2.50864e-06
6.51611e-07
-2.64791e-06
6.33263e-07
-2.78357e-06
6.14935e-07
-2.91562e-06
5.96666e-07
-3.04408e-06
5.78454e-07
-3.16891e-06
5.60266e-07
-3.29006e-06
5.42043e-07
-3.40748e-06
5.23702e-07
-3.52105e-06
5.05139e-07
-3.63065e-06
4.86238e-07
-3.73613e-06
4.66866e-07
-3.83729e-06
4.46885e-07
-3.93392e-06
4.2615e-07
-4.02575e-06
4.04508e-07
-4.11251e-06
3.81802e-07
-4.19388e-06
3.57872e-07
-4.26952e-06
3.32554e-07
-4.33903e-06
3.05686e-07
-4.40201e-06
2.77102e-07
-4.45801e-06
2.46637e-07
-4.50656e-06
2.14129e-07
-4.54713e-06
1.79418e-07
-4.57919e-06
1.42355e-07
-4.60214e-06
1.02796e-07
-4.61538e-06
6.06182e-08
-4.61826e-06
1.57265e-08
-4.61009e-06
-3.19405e-08
-4.59016e-06
-8.23785e-08
-4.55775e-06
-1.35465e-07
-4.51218e-06
-1.9094e-07
-4.45281e-06
-2.48417e-07
-4.37911e-06
-3.07375e-07
-4.2907e-06
-3.67144e-07
-4.18742e-06
-4.26912e-07
-4.06933e-06
-4.85735e-07
-3.93683e-06
-5.42574e-07
-3.79062e-06
-5.9634e-07
-3.63175e-06
-6.45962e-07
-3.46158e-06
-6.90452e-07
-3.28172e-06
-7.28973e-07
-3.09397e-06
-7.60903e-07
-2.90024e-06
-7.8585e-07
-2.70248e-06
-8.03658e-07
-2.50257e-06
-8.14394e-07
-2.3023e-06
-8.18329e-07
-2.1033e-06
-8.1591e-07
-1.90701e-06
-8.07718e-07
-1.71465e-06
-7.94422e-07
-1.52725e-06
-7.7674e-07
-1.34562e-06
-7.55424e-07
-1.17037e-06
-7.312e-07
-1.00194e-06
-7.04754e-07
-8.40575e-07
-6.76756e-07
-6.86416e-07
-6.47765e-07
-5.39476e-07
-6.18286e-07
-3.99619e-07
-5.88849e-07
-2.66698e-07
-5.59735e-07
-1.40455e-07
-5.31347e-07
-2.05212e-08
-5.03991e-07
9.29233e-08
-4.77309e-07
1.99743e-07
-4.51601e-07
3.00434e-07
-4.26944e-07
3.95399e-07
-4.03426e-07
4.85037e-07
-3.8116e-07
5.69741e-07
-3.60192e-07
6.49929e-07
-3.40509e-07
7.26015e-07
-3.22103e-07
7.98359e-07
-3.0498e-07
8.67287e-07
-2.89133e-07
9.331e-07
-2.7454e-07
9.96076e-07
-2.61166e-07
1.05648e-06
-2.48965e-07
1.11455e-06
-2.37886e-07
1.17051e-06
-2.27873e-07
1.22459e-06
-2.18864e-07
1.27697e-06
-2.10797e-07
1.32785e-06
-2.03608e-07
1.37739e-06
-1.97233e-07
1.42575e-06
-1.9161e-07
1.47307e-06
-1.86675e-07
1.51949e-06
-1.82371e-07
1.56512e-06
-1.7864e-07
1.61006e-06
-1.75425e-07
1.6544e-06
-1.72675e-07
1.69824e-06
-1.70336e-07
1.74165e-06
-1.68362e-07
1.78468e-06
-1.66705e-07
1.82738e-06
-1.65321e-07
1.86982e-06
-1.64168e-07
1.91201e-06
-1.63203e-07
1.95398e-06
-1.62388e-07
1.99576e-06
-1.61688e-07
2.03736e-06
-1.61068e-07
2.07878e-06
-1.60497e-07