/*--------------------------------*- C++ -*----------------------------------*\
| =========                 |                                                 |
| \\      /  F ield         | OpenFOAM: The Open Source CFD Toolbox           |
|  \\    /   O peration     | Version:  1.4.2                                 |
|   \\  /    A nd           | Web:      http://www.openfoam.org               |
|    \\/     M anipulation  |                                                 |
\*---------------------------------------------------------------------------*/
FoamFile
{
    version     2.0;
    format      ascii;
    class       volVectorField;
    object      U;
    location    "100";
}
// * * * * * * * * * * * * * * * * * * * * * * * * * * * * * * * * * * * * * //

dimensions      [0 1 -1 0 0 0 0];

internalField   nonuniform List<vector> 
12225
(
(9.78726 0.0320324 0)
(9.65392 0.0256179 0)
(9.56097 0.0244311 0)
(9.48486 0.028154 0)
(9.40327 0.0280479 0)
(9.33063 0.0254309 0)
(9.27094 0.0217628 0)
(9.22465 0.0179108 0)
(9.19063 0.0142736 0)
(9.16726 0.0110014 0)
(9.15294 0.00811374 0)
(9.14628 0.00556854 0)
(9.14615 0.0033176 0)
(9.15163 0.00128887 0)
(9.16187 -0.000595081 0)
(9.1777 -0.00256567 0)
(9.19208 -0.004972 0)
(9.29655 -0.0218017 0)
(10.002 0.051324 0)
(9.98079 0.0371956 0)
(9.92006 0.0267409 0)
(9.86195 0.024096 0)
(9.81107 0.0234224 0)
(9.76752 0.0213476 0)
(9.73176 0.0181753 0)
(9.70426 0.0145258 0)
(9.68492 0.0108058 0)
(9.67327 0.00723122 0)
(9.66859 0.00388352 0)
(9.67016 0.000765785 0)
(9.67717 -0.00214456 0)
(9.68901 -0.00491935 0)
(9.70511 -0.00770955 0)
(9.72612 -0.0108583 0)
(9.74911 -0.0165372 0)
(9.80067 -0.0200943 0)
(10.0144 0.0490755 0)
(10.0099 0.042631 0)
(9.97496 0.0373187 0)
(9.93766 0.036214 0)
(9.90544 0.0346202 0)
(9.87852 0.030912 0)
(9.85717 0.0258253 0)
(9.84173 0.0201378 0)
(9.83231 0.014353 0)
(9.82874 0.00874197 0)
(9.83066 0.00341812 0)
(9.8376 -0.00159591 0)
(9.84899 -0.00633082 0)
(9.86438 -0.0108931 0)
(9.88331 -0.0155147 0)
(9.90609 -0.0206694 0)
(9.93036 -0.0282714 0)
(9.96602 -0.0384863 0)
(10.0129 0.0458572 0)
(10.0136 0.0471056 0)
(9.99206 0.0449941 0)
(9.96737 0.0441324 0)
(9.94651 0.0416711 0)
(9.92997 0.0367672 0)
(9.91792 0.0302371 0)
(9.91057 0.0229136 0)
(9.90799 0.0153705 0)
(9.9101 0.00794192 0)
(9.91665 0.000793939 0)
(9.92727 -0.00601461 0)
(9.94154 -0.0125032 0)
(9.95909 -0.0187828 0)
(9.97947 -0.0251189 0)
(10.0027 -0.0319823 0)
(10.0269 -0.0409667 0)
(10.0557 -0.0520078 0)
(10.0099 0.042019 0)
(10.0124 0.0499517 0)
(9.99947 0.0507145 0)
(9.9836 0.0499017 0)
(9.97072 0.0465093 0)
(9.96143 0.040423 0)
(9.95595 0.0325264 0)
(9.95436 0.0236758 0)
(9.95669 0.0144877 0)
(9.96285 0.00534679 0)
(9.97263 -0.00353212 0)
(9.98574 -0.0120533 0)
(10.0018 -0.0202169 0)
(10.0205 -0.028121 0)
(10.0414 -0.0360184 0)
(10.0644 -0.0443154 0)
(10.0879 -0.054173 0)
(10.1131 -0.0655713 0)
(10.0072 0.0386803 0)
(10.0101 0.0513929 0)
(10.0033 0.0544821 0)
(9.99413 0.0536637 0)
(9.98735 0.0493651 0)
(9.98355 0.042119 0)
(9.98296 0.0329071 0)
(9.98563 0.0226084 0)
(9.99154 0.0118715 0)
(10.0006 0.00112223 0)
(10.0126 -0.00938061 0)
(10.0272 -0.0195072 0)
(10.0443 -0.0292308 0)
(10.0634 -0.0386261 0)
(10.0841 -0.0479044 0)
(10.1062 -0.0573909 0)
(10.1287 -0.0678693 0)
(10.1515 -0.079446 0)
(10.005 0.0359485 0)
(10.008 0.0517844 0)
(10.0057 0.056537 0)
(10.0018 0.0556298 0)
(9.99986 0.0504673 0)
(10.0004 0.0420952 0)
(10.0035 0.0316114 0)
(10.0094 0.0199293 0)
(10.0179 0.0077282 0)
(10.0289 -0.00452908 0)
(10.0423 -0.0165448 0)
(10.0578 -0.0281563 0)
(10.0751 -0.039307 0)
(10.0939 -0.0500421 0)
(10.1139 -0.0605232 0)
(10.1348 -0.0710033 0)
(10.1559 -0.0820022 0)
(10.1768 -0.0937452 0)
(10.0036 0.0340689 0)
(10.0068 0.0514519 0)
(10.0073 0.0569987 0)
(10.007 0.0558696 0)
(10.0083 0.049956 0)
(10.0117 0.0406359 0)
(10.0172 0.0290951 0)
(10.0251 0.0162828 0)
(10.0351 0.00290414 0)
(10.0471 -0.0105483 0)
(10.0611 -0.0237491 0)
(10.0767 -0.0365078 0)
(10.0937 -0.0487451 0)
(10.1118 -0.0604807 0)
(10.1308 -0.0718389 0)
(10.1503 -0.083023 0)
(10.1699 -0.0944161 0)
(10.1891 -0.106287 0)
(10.0027 0.0325747 0)
(10.0061 0.0506927 0)
(10.0087 0.0566315 0)
(10.0109 0.0552629 0)
(10.0145 0.0487323 0)
(10.0199 0.038641 0)
(10.0271 0.0262362 0)
(10.0361 0.0124991 0)
(10.0469 -0.00184131 0)
(10.0594 -0.0162656 0)
(10.0734 -0.0304243 0)
(10.0887 -0.0441034 0)
(10.105 -0.0572034 0)
(10.1222 -0.0697229 0)
(10.1399 -0.0817585 0)
(10.158 -0.093476 0)
(10.1759 -0.105178 0)
(10.1935 -0.117131 0)
(10.002 0.0311591 0)
(10.0057 0.0493655 0)
(10.0101 0.0553788 0)
(10.0145 0.0536565 0)
(10.0201 0.0464785 0)
(10.027 0.0356027 0)
(10.0354 0.0223328 0)
(10.0453 0.00767966 0)
(10.0565 -0.00760256 0)
(10.069 -0.0229691 0)
(10.0826 -0.0380457 0)
(10.0972 -0.0525966 0)
(10.1124 -0.0665018 0)
(10.1282 -0.0797408 0)
(10.1443 -0.0923856 0)
(10.1605 -0.104574 0)
(10.1765 -0.116546 0)
(10.192 -0.128541 0)
(10.0017 0.0296894 0)
(10.0056 0.0473683 0)
(10.0115 0.0531167 0)
(10.0176 0.0509098 0)
(10.0248 0.0430628 0)
(10.033 0.0314141 0)
(10.0423 0.0173118 0)
(10.0526 0.00179185 0)
(10.0639 -0.0143682 0)
(10.076 -0.0306005 0)
(10.0888 -0.0465077 0)
(10.1023 -0.0618334 0)
(10.1161 -0.0764382 0)
(10.1302 -0.0902849 0)
(10.1443 -0.103424 0)
(10.1583 -0.115969 0)
(10.1719 -0.12811 0)
(10.185 -0.140034 0)
(10.0015 0.0280178 0)
(10.0059 0.0445962 0)
(10.0128 0.0497343 0)
(10.0203 0.0469104 0)
(10.0287 0.0383893 0)
(10.0378 0.0260172 0)
(10.0475 0.0111648 0)
(10.0579 -0.00511571 0)
(10.0689 -0.0220295 0)
(10.0803 -0.0389886 0)
(10.0921 -0.0555761 0)
(10.104 -0.0715157 0)
(10.1161 -0.0866518 0)
(10.1281 -0.10093 0)
(10.1399 -0.114382 0)
(10.1514 -0.127099 0)
(10.1624 -0.139225 0)
(10.1727 -0.150887 0)
(10.0016 0.0259884 0)
(10.0062 0.0409476 0)
(10.014 0.045141 0)
(10.0225 0.0415709 0)
(10.0316 0.032388 0)
(10.0412 0.0193826 0)
(10.0511 0.00391842 0)
(10.0612 -0.0129518 0)
(10.0715 -0.0304249 0)
(10.0819 -0.0478999 0)
(10.0922 -0.0649434 0)
(10.1024 -0.0812626 0)
(10.1124 -0.0966864 0)
(10.1221 -0.111145 0)
(10.1314 -0.124649 0)
(10.1402 -0.137268 0)
(10.1482 -0.149104 0)
(10.1556 -0.160234 0)
(10.0017 0.0234394 0)
(10.0067 0.0363296 0)
(10.0149 0.039282 0)
(10.024 0.0348582 0)
(10.0334 0.0250538 0)
(10.0431 0.0115533 0)
(10.0528 -0.00432101 0)
(10.0623 -0.0215366 0)
(10.0716 -0.0392963 0)
(10.0806 -0.0569946 0)
(10.0892 -0.0741872 0)
(10.0975 -0.0905683 0)
(10.1052 -0.105952 0)
(10.1125 -0.120252 0)
(10.119 -0.13346 0)
(10.1249 -0.145621 0)
(10.1299 -0.156807 0)
(10.1342 -0.167058 0)
(10.0018 0.0202329 0)
(10.0071 0.0306784 0)
(10.0155 0.0321569 0)
(10.0246 0.0268189 0)
(10.0341 0.0164792 0)
(10.0434 0.00268123 0)
(10.0524 -0.01333 0)
(10.061 -0.0305678 0)
(10.069 -0.0482576 0)
(10.0764 -0.0658009 0)
(10.0832 -0.0827497 0)
(10.0893 -0.0987889 0)
(10.0947 -0.113718 0)
(10.0993 -0.127436 0)
(10.1031 -0.139916 0)
(10.1061 -0.151183 0)
(10.1081 -0.161287 0)
(10.1093 -0.170256 0)
(10.0019 0.0162977 0)
(10.0072 0.0239942 0)
(10.0155 0.0238467 0)
(10.0244 0.0176066 0)
(10.0334 0.006886 0)
(10.042 -0.00693904 0)
(10.05 -0.0227361 0)
(10.0573 -0.0395914 0)
(10.0638 -0.0567726 0)
(10.0694 -0.0737011 0)
(10.0741 -0.0899339 0)
(10.078 -0.105151 0)
(10.0809 -0.11914 0)
(10.083 -0.131786 0)
(10.0841 -0.143046 0)
(10.0843 -0.152931 0)
(10.0836 -0.161483 0)
(10.082 -0.168739 0)
(10.0019 0.0116795 0)
(10.007 0.0163881 0)
(10.0148 0.0145499 0)
(10.0232 0.00751432 0)
(10.0313 -0.00334126 0)
(10.0388 -0.0168344 0)
(10.0456 -0.0319809 0)
(10.0513 -0.0479678 0)
(10.056 -0.0641256 0)
(10.0596 -0.0799101 0)
(10.0622 -0.0948926 0)
(10.0638 -0.108753 0)
(10.0645 -0.121272 0)
(10.0641 -0.132322 0)
(10.0628 -0.141849 0)
(10.0605 -0.149857 0)
(10.0573 -0.156388 0)
(10.0532 -0.161504 0)
(10.0017 0.0069162 0)
(10.0066 0.00867941 0)
(10.0137 0.00528865 0)
(10.0212 -0.00228642 0)
(10.0283 -0.0129347 0)
(10.0345 -0.0256948 0)
(10.0398 -0.0397532 0)
(10.0438 -0.0544174 0)
(10.0467 -0.0690966 0)
(10.0485 -0.0832926 0)
(10.0491 -0.0965987 0)
(10.0486 -0.108701 0)
(10.0471 -0.119376 0)
(10.0447 -0.128487 0)
(10.0414 -0.135972 0)
(10.0371 -0.14183 0)
(10.032 -0.146109 0)
(10.0262 -0.148893 0)
(10.0015 0.00273515 0)
(10.0061 0.0019466 0)
(10.0127 -0.00263649 0)
(10.0194 -0.0103991 0)
(10.0254 -0.0205213 0)
(10.0304 -0.0322665 0)
(10.0342 -0.044993 0)
(10.0367 -0.0581298 0)
(10.0379 -0.0711659 0)
(10.038 -0.0836514 0)
(10.0368 -0.0952048 0)
(10.0347 -0.105522 0)
(10.0315 -0.114378 0)
(10.0275 -0.121629 0)
(10.0227 -0.127205 0)
(10.017 -0.131099 0)
(10.0107 -0.133362 0)
(10.0038 -0.134093 0)
(10.0014 -0.000750364 0)
(10.0058 -0.00365136 0)
(10.012 -0.00903532 0)
(10.018 -0.0166744 0)
(10.023 -0.0260471 0)
(10.0269 -0.0366339 0)
(10.0294 -0.0479519 0)
(10.0306 -0.0595405 0)
(10.0304 -0.0709619 0)
(10.0289 -0.0818119 0)
(10.0263 -0.0917353 0)
(10.0227 -0.10044 0)
(10.0181 -0.107703 0)
(10.0128 -0.113378 0)
(10.0068 -0.117387 0)
(10.0002 -0.11972 0)
(9.99305 -0.120427 0)
(9.98552 -0.119616 0)
(10.0015 -0.00379408 0)
(10.0059 -0.00845261 0)
(10.0118 -0.014289 0)
(10.0172 -0.0215444 0)
(10.0214 -0.0299991 0)
(10.0242 -0.0393363 0)
(10.0256 -0.0492148 0)
(10.0254 -0.059271 0)
(10.0239 -0.0691323 0)
(10.021 -0.0784385 0)
(10.017 -0.0868631 0)
(10.012 -0.0941301 0)
(10.0062 -0.100026 0)
(9.9997 -0.104403 0)
(9.99264 -0.107183 0)
(9.98515 -0.108351 0)
(9.97735 -0.107957 0)
(9.96939 -0.106112 0)
(10.0016 -0.00661253 0)
(10.0062 -0.0127193 0)
(10.0121 -0.0186687 0)
(10.0169 -0.0253083 0)
(10.0203 -0.0327145 0)
(10.0221 -0.0407469 0)
(10.0223 -0.0491814 0)
(10.0209 -0.0577342 0)
(10.018 -0.0660914 0)
(10.0138 -0.0739371 0)
(10.0084 -0.0809776 0)
(10.002 -0.0869597 0)
(9.9949 -0.0916832 0)
(9.9872 -0.0950072 0)
(9.97909 -0.096854 0)
(9.97072 -0.0972072 0)
(9.96226 -0.0961139 0)
(9.95387 -0.0936884 0)
(10.0019 -0.00940264 0)
(10.007 -0.016633 0)
(10.0129 -0.0223285 0)
(10.0171 -0.0281367 0)
(10.0195 -0.0344008 0)
(10.0203 -0.0411074 0)
(10.0193 -0.0481146 0)
(10.0166 -0.0552006 0)
(10.0123 -0.0621054 0)
(10.0066 -0.0685604 0)
(9.99974 -0.0743107 0)
(9.99192 -0.0791322 0)
(9.9834 -0.0828431 0)
(9.9744 -0.0853129 0)
(9.96514 -0.086466 0)
(9.95579 -0.0862845 0)
(9.94654 -0.0848129 0)
(9.9376 -0.0821693 0)
(10.0024 -0.0123621 0)
(10.0084 -0.020291 0)
(10.0141 -0.0253043 0)
(10.0174 -0.0300815 0)
(10.0187 -0.0351556 0)
(10.0182 -0.0405546 0)
(10.0158 -0.0461732 0)
(10.0117 -0.051837 0)
(10.0059 -0.05734 0)
(9.99864 -0.0624663 0)
(9.99017 -0.0670052 0)
(9.98076 -0.0707666 0)
(9.97069 -0.0735915 0)
(9.96024 -0.0753611 0)
(9.94965 -0.0760031 0)
(9.93915 -0.0754964 0)
(9.92893 -0.0738816 0)
(9.91923 -0.0712821 0)
(10.0034 -0.0157018 0)
(10.0105 -0.0236966 0)
(10.0156 -0.0275146 0)
(10.0174 -0.0310893 0)
(10.0172 -0.0349854 0)
(10.0151 -0.0391351 0)
(10.0111 -0.043426 0)
(10.0053 -0.0477249 0)
(9.99771 -0.0518832 0)
(9.98866 -0.0557428 0)
(9.97837 -0.0591421 0)
(9.96715 -0.0619286 0)
(9.95534 -0.0639687 0)
(9.94323 -0.0651566 0)
(9.93111 -0.0654227 0)
(9.91923 -0.0647401 0)
(9.9078 -0.063141 0)
(9.89707 -0.0607523 0)
(10.0049 -0.0196674 0)
(10.0133 -0.0267126 0)
(10.0171 -0.028736 0)
(10.0165 -0.031011 0)
(10.014 -0.0338089 0)
(10.0097 -0.0368062 0)
(10.0036 -0.0398548 0)
(9.9956 -0.0428639 0)
(9.98589 -0.0457481 0)
(9.97465 -0.0484112 0)
(9.9622 -0.0507451 0)
(9.94887 -0.0526366 0)
(9.935 -0.0539788 0)
(9.92095 -0.0546797 0)
(9.90703 -0.0546716 0)
(9.89349 -0.0539189 0)
(9.88059 -0.052438 0)
(9.86854 -0.0503495 0)
(10.0071 -0.0245282 0)
(10.0165 -0.0289352 0)
(10.0174 -0.0285508 0)
(10.0131 -0.0295027 0)
(10.007 -0.0313378 0)
(9.99955 -0.033315 0)
(9.99036 -0.0352366 0)
(9.97941 -0.0370627 0)
(9.96678 -0.038775 0)
(9.95271 -0.0403418 0)
(9.9375 -0.0417082 0)
(9.92153 -0.0428007 0)
(9.90516 -0.0435386 0)
(9.88875 -0.0438438 0)
(9.87263 -0.0436508 0)
(9.85709 -0.0429133 0)
(9.84237 -0.041626 0)
(9.82864 -0.0398801 0)
(10.0095 -0.0297803 0)
(10.0185 -0.0297353 0)
(10.0138 -0.0265764 0)
(10.003 -0.0262354 0)
(9.99097 -0.0272454 0)
(9.97813 -0.0283442 0)
(9.96394 -0.0292867 0)
(9.94829 -0.0300872 0)
(9.93125 -0.0307883 0)
(9.91306 -0.0314161 0)
(9.89402 -0.0319625 0)
(9.87449 -0.0323894 0)
(9.85483 -0.0326402 0)
(9.83539 -0.0326512 0)
(9.81648 -0.0323608 0)
(9.7984 -0.0317147 0)
(9.78138 -0.030683 0)
(9.76551 -0.0292971 0)
(10.006 -0.0341688 0)
(10.0095 -0.0302016 0)
(9.99069 -0.0225282 0)
(9.96614 -0.0193055 0)
(9.94217 -0.0189432 0)
(9.91864 -0.0191344 0)
(9.89478 -0.0193469 0)
(9.87043 -0.0195266 0)
(9.84568 -0.0196906 0)
(9.82068 -0.019862 0)
(9.79565 -0.0200435 0)
(9.77083 -0.020213 0)
(9.74646 -0.0203325 0)
(9.7228 -0.0203541 0)
(9.7001 -0.0202264 0)
(9.67858 -0.0198948 0)
(9.65849 -0.0193088 0)
(9.63974 -0.0183845 0)
(9.89523 -0.022799 0)
(9.81928 -0.0208962 0)
(9.75164 -0.0188139 0)
(9.70474 -0.0210732 0)
(9.65609 -0.0235797 0)
(9.6085 -0.0249553 0)
(9.56276 -0.0250138 0)
(9.51953 -0.0241004 0)
(9.47902 -0.022649 0)
(9.44106 -0.021007 0)
(9.40536 -0.0193914 0)
(9.37165 -0.0179048 0)
(9.33974 -0.0165754 0)
(9.30951 -0.0153874 0)
(9.28094 -0.0143031 0)
(9.2541 -0.0132748 0)
(9.22919 -0.0122502 0)
(9.20592 -0.0111349 0)
(-0.0326137 0.0505823 0)
(-0.114295 0.180327 0)
(-0.279427 0.242762 0)
(-0.464999 0.258556 0)
(-0.656568 0.257705 0)
(-0.849813 0.252151 0)
(-1.04267 0.245225 -3.51299e-23)
(-1.23383 0.237801 1.05437e-21)
(-1.42247 0.230166 0)
(-1.60799 0.222458 2.87462e-21)
(-1.78993 0.214762 0)
(-1.96797 0.207142 0)
(-2.14189 0.199645 0)
(-2.31151 0.192308 -5.91446e-21)
(-2.47675 0.185156 0)
(-2.63755 0.178205 0)
(-2.79391 0.17146 7.79603e-21)
(-2.94582 0.16492 0)
(-3.09333 0.158574 0)
(-3.23644 0.152403 0)
(-3.37519 0.146381 -9.86668e-21)
(-3.50958 0.140477 0)
(-3.63961 0.134657 -1.07302e-20)
(-3.76524 0.128882 0)
(-3.8864 0.123109 0)
(-4.00299 0.117294 -1.1815e-20)
(-4.11487 0.111392 0)
(-4.22186 0.105357 1.23923e-20)
(-4.32374 0.099141 0)
(-4.42023 0.0926971 -1.28426e-20)
(-4.511 0.0859757 0)
(-4.59569 0.0789289 0)
(-4.67389 0.0715123 0)
(-4.74515 0.0636845 0)
(-4.8089 0.0554057 0)
(-4.86455 0.0466361 1.32696e-20)
(-4.91148 0.0373394 0)
(-4.94909 0.0274893 -2.6048e-20)
(-4.97677 0.0170754 0)
(-4.9938 0.00610657 2.50729e-20)
(-4.9992 -0.00538654 0)
(-4.9923 -0.0173841 0)
(-4.97251 -0.0298352 -2.23523e-20)
(-4.93924 -0.0426527 0)
(-4.89202 -0.0557152 -1.96371e-20)
(-4.83054 -0.06888 1.79855e-20)
(-4.75465 -0.0819871 0)
(-4.6644 -0.0948633 1.40537e-20)
(-4.56004 -0.107327 1.1759e-20)
(-4.44205 -0.119197 0)
(-4.31112 -0.130295 0)
(-4.16816 -0.140456 0)
(-4.01425 -0.149533 0)
(-3.85068 -0.157409 0)
(-3.67883 -0.163994 6.95705e-21)
(-3.50021 -0.169233 0)
(-3.31637 -0.173102 -1.51906e-20)
(-3.12889 -0.175614 0)
(-2.93932 -0.176815 0)
(-2.74912 -0.176777 2.95822e-20)
(-2.5597 -0.175596 0)
(-2.37231 -0.173386 -4.06761e-20)
(-2.18809 -0.170273 0)
(-2.008 -0.166386 0)
(-1.83287 -0.161856 0)
(-1.66336 -0.156811 6.71946e-20)
(-1.49998 -0.151368 0)
(-1.34311 -0.145635 0)
(-1.193 -0.139709 9.18472e-20)
(-1.04978 -0.133664 0)
(-0.913485 -0.127556 1.11137e-19)
(-0.784067 -0.121427 0)
(-0.661432 -0.115304 0)
(-0.545431 -0.109218 0)
(-0.435847 -0.103231 -1.58188e-19)
(-0.332381 -0.097485 0)
(-0.234767 -0.0923525 0)
(-0.142851 -0.0881362 -2.06328e-19)
(-0.0568377 -0.084515 -2.30638e-19)
(0.028903 -0.0800692 0)
(0.107139 -0.0750087 -2.37254e-19)
(0.181477 -0.0699059 0)
(0.25178 -0.0650038 -4.54457e-19)
(0.318229 -0.060388 0)
(0.381084 -0.0560983 -4.3627e-19)
(0.44063 -0.0521507 0)
(0.497153 -0.0485451 4.1957e-19)
(0.550934 -0.045271 0)
(0.602247 -0.0423122 0)
(0.651344 -0.039649 0)
(0.698468 -0.0372599 -3.90575e-19)
(0.743846 -0.0351226 0)
(0.787687 -0.0332153 3.77927e-19)
(0.830184 -0.0315166 0)
(0.871516 -0.0300063 -3.66212e-19)
(0.911846 -0.0286659 -3.60641e-19)
(0.951323 -0.0274782 -3.55232e-19)
(0.990081 -0.0264269 0)
(1.02824 -0.0254965 0)
(1.06591 -0.0246728 0)
(1.10318 -0.0239424 0)
(1.14014 -0.0232936 0)
(1.17687 -0.0227152 0)
(1.21343 -0.0221971 0)
(1.24986 -0.0217294 0)
(1.2862 -0.0213031 3.11573e-19)
(1.3225 -0.0209101 3.0714e-19)
(1.35877 -0.0205436 0)
(1.39503 -0.0201976 0)
(1.43128 -0.0198666 0)
(1.46752 -0.0195455 2.90152e-19)
(1.50375 -0.0192297 0)
(1.53994 -0.0189156 0)
(1.57609 -0.0186001 0)
(1.61216 -0.0182803 0)
(1.64813 -0.0179535 -2.70724e-19)
(1.68396 -0.0176176 0)
(1.71961 -0.0172714 0)
(1.75505 -0.0169145 2.60139e-19)
(1.79025 -0.0165461 -2.56801e-19)
(1.82514 -0.0161653 0)
(1.85971 -0.015771 -2.50425e-19)
(1.89388 -0.0153627 0)
(1.92763 -0.014941 2.44453e-19)
(1.96089 -0.014506 0)
(1.99362 -0.0140576 0)
(2.02576 -0.013595 0)
(2.05726 -0.0131179 0)
(2.08804 -0.0126267 0)
(2.11805 -0.0121216 -4.58174e-19)
(2.14724 -0.0116025 -4.53825e-19)
(2.17553 -0.011069 0)
(2.20286 -0.0105216 0)
(2.22918 -0.00996229 0)
(2.25443 -0.00939321 4.38732e-19)
(2.27854 -0.00881648 0)
(2.30149 -0.00823458 0)
(2.32322 -0.00765135 0)
(2.34371 -0.00707167 4.27359e-19)
(2.36294 -0.00650026 -4.25085e-19)
(2.38088 -0.00594092 0)
(2.39754 -0.0053971 0)
(2.41293 -0.0048724 -4.19549e-19)
(2.42706 -0.00436966 -4.18111e-19)
(2.43995 -0.0038904 0)
(2.45164 -0.00343618 0)
(2.46214 -0.00300949 4.14915e-19)
(2.4715 -0.00261228 -4.14195e-19)
(2.47975 -0.0022453 0)
(2.48694 -0.00191054 0)
(2.49312 -0.00161137 -4.12951e-19)
(2.49835 -0.0013471 0)
(2.50276 -0.00110897 0)
(2.50636 -0.000886237 -4.12619e-19)
(2.50917 -0.000673546 0)
(2.51119 -0.000467589 -4.12951e-19)
(2.5124 -0.000265026 0)
(2.51283 -6.42392e-05 0)
(2.51248 0.000134002 0)
(2.51135 0.000330105 4.15155e-19)
(2.50944 0.000524898 0)
(2.50676 0.000717975 0)
(2.50332 0.000912306 0)
(2.49914 0.00112147 0)
(2.49407 0.00139853 0)
(2.48816 0.000401635 0)
(2.48133 -0.00108628 4.25279e-19)
(2.4737 -0.00134048 4.27939e-19)
(2.46525 -0.00106929 0)
(2.45596 -0.000569543 0)
(2.44591 3.37383e-05 0)
(2.43508 0.000681517 -4.37894e-19)
(2.42338 0.00135056 0)
(2.41052 0.00206001 8.86275e-19)
(2.39604 0.00287565 -8.92191e-19)
(2.37903 0.00393259 -8.99045e-19)
(2.358 0.00549442 9.0751e-19)
(2.32958 0.0082177 -9.1882e-19)
(2.28989 0.0139525 9.35558e-19)
(2.1874 0.0325129 0)
(-0.143926 0.31872 0)
(-0.258022 0.462563 0)
(-0.41958 0.533069 -5.74828e-21)
(-0.591617 0.564143 0)
(-0.76708 0.574604 2.34764e-21)
(-0.94512 0.574561 9.84438e-22)
(-1.12413 0.568725 -2.77667e-22)
(-1.30252 0.559327 -6.48146e-22)
(-1.47909 0.547553 0)
(-1.65303 0.534134 -1.82155e-21)
(-1.8237 0.519581 0)
(-1.99069 0.50428 0)
(-2.1537 0.488528 6.84683e-21)
(-2.31253 0.472558 3.85877e-21)
(-2.46706 0.456547 -8.63021e-21)
(-2.61723 0.440626 -9.45072e-21)
(-2.76301 0.424888 -5.12346e-21)
(-2.9044 0.409389 0)
(-3.04142 0.394156 0)
(-3.17409 0.379186 0)
(-3.30242 0.364454 -6.40328e-21)
(-3.42641 0.349917 0)
(-3.54603 0.335515 2.09768e-20)
(-3.66125 0.321179 0)
(-3.77198 0.306827 0)
(-3.87813 0.292369 7.66264e-21)
(-3.97955 0.277713 0)
(-4.07609 0.262761 -7.97128e-21)
(-4.16753 0.247414 -1.61295e-20)
(-4.25362 0.231572 8.1778e-21)
(-4.33409 0.21513 0)
(-4.4086 0.197987 0)
(-4.47681 0.180041 0)
(-4.53831 0.161202 -1.65845e-20)
(-4.59267 0.141379 -1.65049e-20)
(-4.63938 0.120491 -8.10406e-21)
(-4.67791 0.0984563 0)
(-4.70774 0.0752107 1.56383e-20)
(-4.72835 0.0507119 0)
(-4.73911 0.0249514 -1.47874e-20)
(-4.7392 -0.00203861 0)
(-4.72812 -0.030142 0)
(-4.70524 -0.059176 1.27818e-20)
(-4.66998 -0.0889114 0)
(-4.62183 -0.119061 3.43568e-20)
(-4.56041 -0.149285 -9.97397e-21)
(-4.48547 -0.179202 0)
(-4.39693 -0.208396 -7.64157e-21)
(-4.29492 -0.236434 -6.33253e-21)
(-4.17977 -0.262883 0)
(-4.05202 -0.287321 0)
(-3.91248 -0.309363 0)
(-3.76215 -0.328674 0)
(-3.60223 -0.344991 0)
(-3.43409 -0.358131 -3.52441e-21)
(-3.2592 -0.367995 -8.62308e-21)
(-3.07911 -0.37457 7.50984e-21)
(-2.89538 -0.377923 0)
(-2.70956 -0.378207 -2.12245e-20)
(-2.52312 -0.375637 1.16927e-20)
(-2.33747 -0.37048 0)
(-2.15384 -0.363041 1.86484e-20)
(-1.97335 -0.353648 0)
(-1.79696 -0.342638 0)
(-1.62546 -0.330339 4.9905e-20)
(-1.45948 -0.317066 -2.85801e-20)
(-1.2995 -0.303109 6.04284e-20)
(-1.14586 -0.288729 -6.59048e-20)
(-0.998785 -0.274165 -3.67142e-20)
(-0.858361 -0.259618 0)
(-0.724585 -0.245254 -4.25855e-20)
(-0.597365 -0.231227 0)
(-0.476533 -0.217665 0)
(-0.361849 -0.204707 0)
(-0.253016 -0.192514 -5.44232e-20)
(-0.149552 -0.181134 0)
(-0.0510428 -0.170503 -1.25636e-19)
(0.0434957 -0.160484 1.95854e-19)
(0.131943 -0.15126 6.64112e-20)
(0.215879 -0.142099 0)
(0.294947 -0.13297 6.76428e-20)
(0.369823 -0.124354 0)
(0.440857 -0.116327 1.37851e-19)
(0.508353 -0.108924 0)
(0.5726 -0.102145 1.40411e-19)
(0.633878 -0.0959729 -2.81784e-19)
(0.692457 -0.0903809 -1.42958e-19)
(0.748595 -0.0853358 0)
(0.802536 -0.0808019 0)
(0.854511 -0.076742 0)
(0.904736 -0.0731191 1.4784e-19)
(0.953414 -0.0698964 0)
(1.00073 -0.0670387 -1.50076e-19)
(1.04687 -0.0645125 0)
(1.09198 -0.0622864 4.55336e-19)
(1.1362 -0.0603305 1.53049e-19)
(1.17968 -0.0586168 1.53922e-19)
(1.22253 -0.0571187 0)
(1.26486 -0.0558114 0)
(1.30676 -0.0546715 0)
(1.34833 -0.0536773 0)
(1.38962 -0.0528086 0)
(1.43072 -0.0520468 3.14741e-19)
(1.47166 -0.0513739 3.1555e-19)
(1.5125 -0.0507733 0)
(1.55327 -0.0502296 -1.58722e-19)
(1.594 -0.049729 -1.58912e-19)
(1.6347 -0.0492595 0)
(1.67539 -0.04881 -3.17571e-19)
(1.71607 -0.0483702 0)
(1.75674 -0.0479308 1.58458e-19)
(1.79739 -0.0474836 0)
(1.838 -0.0470218 0)
(1.87855 -0.0465395 -3.16642e-19)
(1.91902 -0.0460314 0)
(1.95938 -0.0454926 1.58066e-19)
(1.99959 -0.0449198 0)
(2.03964 -0.0443106 0)
(2.07947 -0.0436634 1.56558e-19)
(2.11905 -0.0429765 1.56617e-19)
(2.15833 -0.0422477 0)
(2.19728 -0.0414754 -1.55339e-19)
(2.23585 -0.0406594 0)
(2.27399 -0.0397999 1.54451e-19)
(2.31165 -0.0388967 3.08358e-19)
(2.34878 -0.0379486 0)
(2.38532 -0.0369539 0)
(2.42121 -0.0359119 0)
(2.45639 -0.0348226 0)
(2.49081 -0.0336854 3.0405e-19)
(2.52439 -0.0324995 9.08944e-19)
(2.55707 -0.0312648 0)
(2.58879 -0.0299836 0)
(2.61948 -0.02866 0)
(2.64908 -0.0272986 -3.00005e-19)
(2.67753 -0.0259051 0)
(2.70478 -0.0244863 0)
(2.73079 -0.0230519 5.95866e-19)
(2.7555 -0.0216124 2.97247e-19)
(2.77889 -0.0201778 2.9713e-19)
(2.80093 -0.0187569 0)
(2.82161 -0.0173577 0)
(2.84091 -0.0159879 2.96063e-19)
(2.85884 -0.0146535 -2.95586e-19)
(2.8754 -0.0133589 0)
(2.8906 -0.0121081 0)
(2.90446 -0.0109049 -2.95457e-19)
(2.91699 -0.00975195 8.8622e-19)
(2.92823 -0.00865099 0)
(2.93818 -0.00760636 0)
(2.94689 -0.00662438 2.95864e-19)
(2.95438 -0.00570592 0)
(2.96065 -0.00484063 5.92568e-19)
(2.96576 -0.00401414 -2.96466e-19)
(2.96978 -0.00321671 0)
(2.97274 -0.00244364 2.97224e-19)
(2.97465 -0.0016931 5.95369e-19)
(2.97555 -0.000965551 0)
(2.97549 -0.000263061 0)
(2.97452 0.000414104 -2.99675e-19)
(2.97267 0.00106639 0)
(2.97 0.00169318 6.02822e-19)
(2.96654 0.00229911 0)
(2.96233 0.00290222 0)
(2.95751 0.00355765 0)
(2.95216 0.00448604 0)
(2.94662 0.00560795 -3.07167e-19)
(2.94062 0.00652251 -3.08395e-19)
(2.93417 0.0071484 0)
(2.92718 0.0076022 0)
(2.91961 0.00800803 0)
(2.91131 0.00845289 3.12188e-19)
(2.90211 0.00901846 0)
(2.89168 0.00982755 -6.27546e-19)
(2.87951 0.011078 6.29295e-19)
(2.86476 0.0131238 6.31454e-19)
(2.84602 0.0166372 6.34164e-19)
(2.82037 0.02313 6.38549e-19)
(2.78591 0.0363922 6.43515e-19)
(2.71496 0.0688799 0)
(-0.145266 0.695101 0)
(-0.270003 0.836034 0)
(-0.433416 0.901399 4.3103e-21)
(-0.604667 0.9335 1.48472e-21)
(-0.773677 0.944837 -1.8006e-21)
(-0.941671 0.942979 -7.64291e-22)
(-1.10862 0.932535 -1.16799e-21)
(-1.27384 0.916313 0)
(-1.4367 0.896103 0)
(-1.59671 0.873128 0)
(-1.75352 0.848278 0)
(-1.90689 0.822227 0)
(-2.05663 0.795491 -1.8192e-20)
(-2.20264 0.768466 0)
(-2.34487 0.741445 7.11188e-21)
(-2.48329 0.714639 7.81066e-21)
(-2.6179 0.688187 0)
(-2.7487 0.662168 0)
(-2.87571 0.636609 0)
(-2.99892 0.611492 0)
(-3.11833 0.586767 1.0748e-20)
(-3.2339 0.562355 0)
(-3.34559 0.538156 -1.16633e-20)
(-3.45332 0.51405 0)
(-3.55699 0.489908 0)
(-3.65646 0.46559 0)
(-3.75158 0.440952 -2.65134e-20)
(-3.84215 0.415847 0)
(-3.92795 0.390125 1.345e-20)
(-4.00873 0.363637 -2.76599e-20)
(-4.08419 0.336236 0)
(-4.15402 0.307773 0)
(-4.21786 0.278109 0)
(-4.27532 0.247108 1.36756e-20)
(-4.326 0.214642 1.35655e-20)
(-4.36942 0.180595 0)
(-4.40508 0.14486 0)
(-4.4325 0.10735 -2.65676e-20)
(-4.45118 0.0680089 -2.59726e-20)
(-4.46054 0.0268152 2.52745e-20)
(-4.4598 -0.0162102 0)
(-4.44849 -0.0609674 0)
(-4.42594 -0.107237 0)
(-4.39155 -0.154693 0)
(-4.34477 -0.202909 -1.83272e-20)
(-4.28512 -0.25137 -1.80178e-20)
(-4.21226 -0.299473 1.637e-20)
(-4.12599 -0.346547 0)
(-4.02634 -0.391869 0)
(-3.91352 -0.434695 0)
(-3.78804 -0.474289 0)
(-3.65066 -0.509966 -5.91332e-21)
(-3.50238 -0.541127 0)
(-3.34445 -0.567297 0)
(-3.17829 -0.588155 2.188e-21)
(-3.00546 -0.603534 6.5582e-21)
(-2.82758 -0.61342 0)
(-2.64629 -0.617942 -2.27876e-20)
(-2.46317 -0.617367 1.59453e-20)
(-2.27975 -0.612084 -1.92167e-20)
(-2.09743 -0.602567 0)
(-1.91744 -0.589351 0)
(-1.74086 -0.573003 0)
(-1.5686 -0.554101 0)
(-1.4014 -0.533203 -3.61708e-20)
(-1.23981 -0.51084 -7.7195e-20)
(-1.08426 -0.487501 -4.31639e-20)
(-0.93499 -0.463609 4.67175e-20)
(-0.792157 -0.439555 0)
(-0.655791 -0.415687 -1.06069e-19)
(-0.525829 -0.392292 -1.13575e-19)
(-0.402134 -0.369661 -1.21248e-19)
(-0.284511 -0.348031 1.29128e-19)
(-0.172626 -0.327544 0)
(-0.0662976 -0.308178 2.18948e-19)
(0.0355188 -0.289638 0)
(0.131082 -0.272203 -7.644e-20)
(0.221475 -0.25565 -7.93288e-20)
(0.306745 -0.240017 0)
(0.387376 -0.225237 0)
(0.463749 -0.211317 -1.65403e-19)
(0.536284 -0.198334 0)
(0.605315 -0.186317 -1.7063e-19)
(0.671146 -0.175267 0)
(0.734052 -0.165159 1.75738e-19)
(0.794298 -0.155957 3.57398e-19)
(0.852129 -0.147614 0)
(0.90778 -0.140079 0)
(0.961471 -0.133298 0)
(1.01341 -0.127216 1.8803e-19)
(1.06379 -0.121781 0)
(1.11279 -0.116937 1.9271e-19)
(1.16058 -0.112634 0)
(1.20732 -0.108823 0)
(1.25314 -0.105456 -3.99369e-19)
(1.29818 -0.102491 0)
(1.34255 -0.0998852 -2.03527e-19)
(1.38636 -0.0975988 0)
(1.42971 -0.0955948 -2.07415e-19)
(1.47267 -0.0938384 0)
(1.51532 -0.0922973 0)
(1.55772 -0.090941 0)
(1.59994 -0.089741 -6.43356e-19)
(1.64201 -0.0886703 -2.16287e-19)
(1.68397 -0.0877038 0)
(1.72586 -0.0868187 0)
(1.76768 -0.0859943 0)
(1.80947 -0.0852119 0)
(1.85121 -0.0844545 2.22569e-19)
(1.89292 -0.0837063 -4.4632e-19)
(1.93458 -0.0829536 -2.24508e-19)
(1.97619 -0.082184 4.49921e-19)
(2.01773 -0.0813869 4.51492e-19)
(2.05918 -0.0805531 2.26837e-19)
(2.10052 -0.0796744 0)
(2.14171 -0.0787442 4.55347e-19)
(2.18273 -0.0777573 0)
(2.22354 -0.0767096 -4.5726e-19)
(2.2641 -0.075598 -2.29351e-19)
(2.30438 -0.0744194 0)
(2.34433 -0.073171 4.59282e-19)
(2.38391 -0.0718511 2.30183e-19)
(2.42308 -0.0704589 0)
(2.46178 -0.0689936 2.29943e-19)
(2.49997 -0.0674535 -6.91317e-19)
(2.53758 -0.0658366 0)
(2.57457 -0.064141 0)
(2.61087 -0.0623652 0)
(2.64642 -0.0605081 0)
(2.68115 -0.058568 -4.61069e-19)
(2.71501 -0.0565441 -4.61467e-19)
(2.74791 -0.0544373 0)
(2.77979 -0.0522513 0)
(2.81059 -0.0499916 0)
(2.84023 -0.0476653 0)
(2.86866 -0.0452818 0)
(2.8958 -0.0428532 0)
(2.92162 -0.0403941 -4.60538e-19)
(2.94607 -0.03792 -2.87055e-22)
(2.96909 -0.0354458 0)
(2.99068 -0.032986 0)
(3.0108 -0.0305544 -4.59622e-19)
(3.02946 -0.0281635 0)
(3.04664 -0.025824 4.59589e-19)
(3.06236 -0.023545 4.59335e-19)
(3.07663 -0.021334 0)
(3.08947 -0.0191968 0)
(3.10093 -0.0171372 -4.59607e-19)
(3.11101 -0.0151603 -9.19369e-19)
(3.11978 -0.0132723 0)
(3.12726 -0.0114784 0)
(3.13351 -0.00977941 0)
(3.13858 -0.00816898 -4.61246e-19)
(3.14248 -0.00663627 4.61578e-19)
(3.14528 -0.00517241 0)
(3.14704 -0.00377291 9.25501e-19)
(3.14781 -0.00243794 4.63609e-19)
(3.14767 -0.001169 -9.29373e-19)
(3.14666 3.36578e-05 0)
(3.14485 0.00117076 0)
(3.14231 0.00224345 -9.37728e-19)
(3.13909 0.00325313 -4.7057e-19)
(3.13526 0.0042044 0)
(3.13087 0.00510643 0)
(3.12603 0.00596157 0)
(3.12077 0.00666449 0)
(3.11507 0.00721953 -9.61182e-19)
(3.10898 0.00776221 0)
(3.10262 0.00833816 0)
(3.09598 0.00898454 0)
(3.08899 0.00973327 0)
(3.08156 0.0106265 0)
(3.07355 0.0117535 0)
(3.0647 0.0132848 -9.80099e-19)
(3.05462 0.0155177 0)
(3.04265 0.0189759 0)
(3.02785 0.0246178 -1.97898e-18)
(3.00845 0.0343848 9.95264e-19)
(2.98482 0.0524326 -1.00458e-18)
(2.94366 0.0877362 1.01495e-18)
(-0.136129 1.07185 0)
(-0.257203 1.20262 -3.21113e-21)
(-0.412954 1.25528 0)
(-0.575865 1.27906 -1.21867e-21)
(-0.734307 1.28386 0)
(-0.889866 1.2755 0)
(-1.04309 1.25798 -3.96635e-21)
(-1.19379 1.23401 0)
(-1.34174 1.20554 0)
(-1.4868 1.17393 0)
(-1.62884 1.14024 0)
(-1.76779 1.10525 0)
(-1.90363 1.06959 2.35593e-20)
(-2.03633 1.0337 1.38055e-20)
(-2.16592 0.997938 -1.49218e-20)
(-2.2924 0.962528 0)
(-2.41579 0.927619 0)
(-2.53611 0.893282 0)
(-2.65335 0.859525 0)
(-2.76751 0.826302 0)
(-2.87855 0.793529 2.07843e-20)
(-2.98643 0.761087 2.16079e-20)
(-3.09105 0.728833 -2.23818e-20)
(-3.19232 0.696604 2.31028e-20)
(-3.29011 0.664223 0)
(-3.38426 0.631504 0)
(-3.47458 0.598257 2.41318e-20)
(-3.56087 0.564288 0)
(-3.64286 0.529404 0)
(-3.7203 0.49341 2.53285e-20)
(-3.79287 0.456116 2.63511e-20)
(-3.86025 0.417335 2.65079e-20)
(-3.92206 0.376886 0)
(-3.97791 0.334594 0)
(-4.02739 0.290296 -2.64307e-20)
(-4.07003 0.243835 0)
(-4.10532 0.195076 0)
(-4.13275 0.143902 2.44705e-20)
(-4.15184 0.0902308 -2.60188e-20)
(-4.162 0.0340163 2.54568e-20)
(-4.16244 -0.0247551 0)
(-4.15261 -0.0859862 0)
(-4.13183 -0.149428 4.30008e-20)
(-4.09943 -0.214684 0)
(-4.05476 -0.281222 3.809e-20)
(-3.99726 -0.348371 5.1615e-20)
(-3.92648 -0.41532 -4.705e-20)
(-3.84213 -0.481128 2.89823e-20)
(-3.74411 -0.544755 0)
(-3.6326 -0.605096 0)
(-3.50808 -0.661038 1.75011e-20)
(-3.37132 -0.711525 5.27153e-21)
(-3.22341 -0.755625 0)
(-3.06572 -0.792597 0)
(-2.8998 -0.821935 -1.93561e-21)
(-2.72736 -0.843383 -6.94138e-21)
(-2.55017 -0.85693 0)
(-2.36999 -0.862792 1.99845e-20)
(-2.18851 -0.861392 -2.38114e-20)
(-2.0073 -0.853321 2.96109e-20)
(-1.82776 -0.8393 0)
(-1.65111 -0.820123 0)
(-1.47839 -0.796624 0)
(-1.31043 -0.769643 0)
(-1.14787 -0.739981 0)
(-0.991203 -0.708395 6.60173e-20)
(-0.840733 -0.67559 0)
(-0.69665 -0.642161 0)
(-0.559009 -0.608665 0)
(-0.427799 -0.575631 1.77945e-19)
(-0.30287 -0.543446 9.54875e-20)
(-0.184063 -0.512425 1.01526e-19)
(-0.0711679 -0.482635 -2.14097e-19)
(0.036676 -0.453911 1.11131e-19)
(0.137974 -0.426725 -1.14936e-19)
(0.23374 -0.400806 0)
(0.32412 -0.376198 1.20297e-19)
(0.409578 -0.353024 0)
(0.490437 -0.331322 0)