/*--------------------------------*- C++ -*----------------------------------*\
| =========                 |                                                 |
| \\      /  F ield         | OpenFOAM: The Open Source CFD Toolbox           |
|  \\    /   O peration     | Version:  1.4.2                                 |
|   \\  /    A nd           | Web:      http://www.openfoam.org               |
|    \\/     M anipulation  |                                                 |
\*---------------------------------------------------------------------------*/
FoamFile
{
    version     2.0;
    format      ascii;
    class       volScalarField;
    object      epsilon;
    location    "650";
}
// * * * * * * * * * * * * * * * * * * * * * * * * * * * * * * * * * * * * * //

dimensions      [0 2 -3 0 0 0 0];

internalField   nonuniform List<scalar> 
12225
(
443.026
353.452
290.586
245.345
212.188
187.594
169.244
155.572
145.485
138.21
133.182
129.985
128.301
127.881
128.529
130.083
132.409
135.671
60.1655
73.6153
79.5677
83.6949
87.7142
92.3542
97.9691
104.741
112.767
122.101
132.761
144.739
158
172.48
188.081
204.667
221.991
240.113
26.2958
33.71
37.8449
40.6832
42.9298
44.9527
46.9641
49.092
51.4161
53.9871
56.8369
59.9836
63.4333
67.1798
71.2023
75.4568
79.8527
84.2251
18.7355
22.7235
25.4806
27.3757
28.8177
30.0125
31.0723
32.0707
33.0568
34.0635
35.1123
36.2167
37.3839
38.6157
39.9082
41.2507
42.6229
43.9806
16.1687
18.1635
19.9327
21.292
22.3445
23.1851
23.8876
24.5053
25.0722
25.6102
26.1341
26.6542
27.1773
27.707
28.2446
28.7889
29.3357
29.8664
15.2354
16.0864
17.0484
17.9368
18.6891
19.3115
19.8308
20.2728
20.6589
21.0058
21.3258
21.6276
21.9171
22.1984
22.4738
22.7445
23.0096
23.2586
14.8942
15.17
15.5864
16.0522
16.5062
16.9217
17.2896
17.61
17.8892
18.1348
18.3542
18.5533
18.7368
18.9085
19.0708
19.2255
19.3724
19.5053
14.7876
14.838
14.9915
15.2092
15.4537
15.7009
15.9368
16.1543
16.351
16.5276
16.6862
16.8291
16.959
17.0783
17.1888
17.292
17.3885
17.4747
14.7441
14.6884
14.7003
14.7662
14.8675
14.9882
15.1163
15.2439
15.3662
15.4805
15.586
15.6827
15.7712
15.8523
15.927
15.9961
16.0602
16.1177
14.7239
14.6134
14.5425
14.5091
14.5063
14.5261
14.5613
14.6058
14.655
14.7057
14.7558
14.8039
14.8493
14.8918
14.9314
14.9682
15.0023
15.0329
14.7149
14.579
14.4658
14.3758
14.3077
14.2585
14.2249
14.2034
14.191
14.1852
14.184
14.1858
14.1895
14.1942
14.1995
14.2049
14.2102
14.2149
14.7109
14.5642
14.4319
14.3142
14.2111
14.1218
14.0449
13.9791
13.9228
13.8744
13.8326
13.7963
13.7645
13.7362
13.711
13.6881
13.6672
13.6481
14.7089
14.5577
14.4176
14.2882
14.1691
14.0601
13.9605
13.8699
13.7873
13.7121
13.6436
13.5809
13.5235
13.4707
13.4219
13.3768
13.3349
13.2965
14.7076
14.5544
14.4112
14.2772
14.1517
14.0345
13.925
13.8227
13.7272
13.6382
13.555
13.4774
13.4048
13.3368
13.2731
13.2133
13.1572
13.1053
14.7067
14.5523
14.4076
14.2717
14.1439
14.0235
13.9101
13.8032
13.7025
13.6074
13.5177
13.433
13.353
13.2774
13.2058
13.1382
13.0742
13.0148
14.706
14.5507
14.4052
14.2684
14.1394
14.0178
13.9029
13.7943
13.6915
13.5941
13.5018
13.4143
13.3312
13.2524
13.1774
13.1062
13.0388
12.9758
14.7055
14.5497
14.4036
14.2662
14.1367
14.0144
13.8988
13.7894
13.6857
13.5874
13.494
13.4054
13.3211
13.241
13.1647
13.0922
13.0233
12.959
14.7053
14.5494
14.403
14.2654
14.1356
14.013
13.8971
13.7873
13.6833
13.5846
13.4909
13.4019
13.3173
13.2369
13.1603
13.0875
13.0184
12.9539
14.7055
14.5497
14.4035
14.2659
14.1362
14.0138
13.8981
13.7886
13.685
13.5868
13.4937
13.4054
13.3216
13.2421
13.1666
13.0949
13.027
12.9637
14.706
14.5507
14.4051
14.2683
14.1396
14.0185
13.9045
13.7971
13.696
13.6006
13.5107
13.426
13.346
13.2705
13.1992
13.1319
13.0684
13.0096
14.7068
14.5528
14.4093
14.2755
14.151
14.0353
13.928
13.8284
13.7361
13.6504
13.5709
13.4969
13.4279
13.3636
13.3034
13.2471
13.1945
13.1461
14.7086
14.5589
14.4227
14.3001
14.1905
14.0931
14.0069
13.9304
13.8623
13.8016
13.747
13.6976
13.6526
13.6113
13.5731
13.5376
13.5046
13.4743
14.7142
14.5802
14.4708
14.3853
14.3209
14.2739
14.2405
14.2172
14.2011
14.1898
14.1815
14.175
14.1693
14.1638
14.158
14.1518
14.1451
14.1383
14.7358
14.6588
14.6349
14.6534
14.7004
14.7639
14.8349
14.9068
14.9754
15.0383
15.0944
15.1431
15.1847
15.2195
15.2481
15.2713
15.2898
15.3045
14.8205
14.9298
15.138
15.3947
15.6602
15.9123
16.1399
16.3383
16.5072
16.6491
16.7675
16.8657
16.9471
17.0143
17.0699
17.1159
17.154
17.1858
15.1412
15.7855
16.517
17.2067
17.796
18.2812
18.6742
18.9897
19.2424
19.4453
19.6092
19.7427
19.8527
19.9444
20.0219
20.0885
20.1466
20.1979
16.3189
18.2995
19.9621
21.2351
22.1813
22.8822
23.4044
23.7998
24.1052
24.3458
24.5398
24.7003
24.8371
24.9574
25.0667
25.1688
25.2666
25.3617
20.7544
25.6375
28.6922
30.5982
31.8393
32.6632
33.2222
33.6186
33.9176
34.1614
34.3774
34.5834
34.7909
35.0073
35.2368
35.4818
35.743
36.0194
43.9611
54.4815
58.7074
60.4208
60.9763
60.9916
60.8476
60.7576
60.7886
60.9698
61.3104
61.8086
62.4573
63.2462
64.1637
65.1973
66.3324
67.5613
332.626
280.253
240.732
210.192
186.153
166.94
151.386
138.653
128.129
119.361
112.006
105.799
100.536
96.0549
92.2271
88.9494
86.1385
83.725
0.069284
0.0942607
0.135607
0.181089
0.227624
0.275268
0.326507
0.386421
0.453945
0.528543
0.610708
0.702013
0.805903
0.91992
1.04382
1.17914
1.32675
1.48721
1.66099
1.84847
2.05002
2.26596
2.49663
2.74237
3.00354
3.28052
3.57375
3.88368
4.21087
4.5559
4.91948
5.30238
5.7055
6.12988
6.57668
7.04726
7.54317
8.06622
8.6185
9.2025
9.82116
10.478
11.1775
11.925
12.7275
13.594
14.5368
15.5726
16.7252
18.0296
19.538
21.3298
23.5277
26.3213
30.0071
35.0639
37.5068
39.9244
42.4713
45.164
48.011
51.02
54.1989
57.5559
61.0992
64.8369
68.7776
72.9295
77.3014
81.9015
86.7384
91.8203
97.1554
102.752
108.617
114.758
121.182
127.895
134.904
142.213
149.826
157.748
165.979
174.522
183.376
192.539
202.01
211.783
221.853
232.21
242.845
253.747
264.9
276.289
287.895
299.698
311.674
323.8
336.047
348.387
360.788
373.219
385.646
398.034
410.348
422.551
434.607
446.481
458.137
469.541
480.662
491.47
501.938
512.041
521.762
531.082
539.992
548.485
556.561
564.223
571.483
578.358
584.869
591.042
596.911
602.509
607.875
613.05
618.075
622.988
627.829
632.629
637.416
642.211
647.027
651.87
656.734
661.604
666.458
671.264
675.981
680.565
684.967
689.134
693.017
696.567
699.745
702.538
704.97
707.059
708.332
708.719
708.143
706.527
703.798
699.891
694.746
688.316
680.564
671.47
661.026
649.24
636.136
621.753
606.15
589.395
571.572
552.782
533.127
512.717
491.677
470.116
448.163
425.942
403.608
381.226
359.096
336.836
315.218
288.688
0.232174
0.186086
0.192066
0.213034
0.243865
0.283543
0.331909
0.388766
0.454664
0.52822
0.60982
0.699893
0.798812
0.906546
1.02315
1.14882
1.28374
1.42806
1.58194
1.74552
1.91896
2.10244
2.29619
2.50044
2.7155
2.9417
3.17942
3.42912
3.69129
3.96652
4.25547
4.55887
4.87756
5.21251
5.5648
5.93566
6.32651
6.73895
7.17485
7.63634
8.12594
8.64655
9.20161
9.79516
10.432
11.1176
11.8588
12.6632
13.5401
14.5002
15.5561
16.7214
18.0085
19.4216
20.942
22.4971
23.899
25.3138
26.7904
28.3421
29.9745
31.6914
33.4967
35.3939
37.3867
39.4787
41.6737
43.9753
46.387
48.9125
51.5554
54.3189
57.2063
60.2209
63.3654
66.6427
70.0553
73.6053
77.2946
81.1247
85.0968
89.2114
93.4687
97.8684
102.409
107.09
111.909
116.862
121.946
127.156
132.487
137.933
143.487
149.14
154.885
160.711
166.608
172.564
178.567
184.604
190.661
196.725
202.779
208.809
214.8
220.735
226.598
232.374
238.049
243.606
249.032
254.314
259.439
264.397
269.179
273.776
278.184
282.397
286.415
290.238
293.868
297.31
300.572
303.661
306.589
309.366
312.007
314.524
316.931
319.241
321.464
323.611
325.689
327.704
329.659
331.552
333.38
335.137
336.815
338.402
339.887
341.256
342.497
343.596
344.541
345.324
345.938
346.381
346.659
346.824
346.719
346.263
345.431
344.197
342.541
340.443
337.885
334.854
331.34
327.338
322.846
317.869
312.415
306.496
300.131
293.343
286.156
278.602
270.71
262.513
254.047
245.349
236.46
227.421
218.279
209.068
199.866
190.688
181.583
172.678
0.442536
0.306848
0.294976
0.314362
0.34995
0.396962
0.452726
0.517026
0.589878
0.671239
0.76117
0.859745
0.967033
1.08307
1.2079
1.34157
1.48417
1.6358
1.7966
1.96673
2.14638
2.33578
2.5352
2.74493
2.96531
3.19675
3.43968
3.6946
3.96207
4.24272
4.53725
4.84646
5.17122
5.51252
5.87146
6.24929
6.64739
7.0673
7.51077
7.97975
8.47642
9.00324
9.56294
10.1586
10.7935
11.4713
12.1957
12.9704
13.7991
14.6848
15.6299
16.6355
17.7007
18.8215
19.9881
21.1854
22.4011
23.6589
24.9733
26.3515
27.7975
29.3145
30.9055
32.5733
34.3207
36.1505
38.0657
40.0689
42.1629
44.3505
46.6342
49.0166
51.5
54.0868
56.7792
59.579
62.488
65.5078
68.6397
71.8845
75.243
78.7155
82.302
86.0019
89.8144
93.738
97.7709
101.911
106.155
110.499
114.939
119.471
124.088
128.786
133.557
138.394
143.288
148.232
153.216
158.23
163.264
168.307
173.348
178.376
183.378
188.342
193.258
198.112
202.894
207.592
212.194
216.692
221.074
225.333
229.46
233.449
237.293
240.989
244.534
247.926
251.165
254.253
257.191
259.983
262.636
265.154
267.544
269.813
271.967
274.015
275.96
277.809
279.566
281.232
282.81
284.298
285.696
286.998
288.202
289.302
290.292
291.166
291.918
292.543
293.037
293.394
293.613
293.691
293.627
293.397
292.925
292.182
291.153
289.824
288.182
286.216
283.916
281.273
278.283
274.941
271.247
267.203
262.813
258.084
253.026
247.655
241.985
236.033
229.817
223.351
216.657
209.757
202.673
195.431
188.048
180.545
172.989
165.397
158.111
151.726
0.71398
0.461995
0.428899
0.445707
0.484172
0.53536
0.596855
0.667754
0.74771
0.836593
0.934364
1.04101
1.15656
1.28101
1.41443
1.55686
1.7084
1.86918
2.03937
2.21917
2.40882
2.60858
2.81879
3.03978
3.27194
3.51572
3.7716
4.04012
4.32188
4.61754
4.92783
5.25358
5.59568
5.95513
6.33303
6.73059
7.14913
7.59011
8.05512
8.54588
9.06426
9.61228
10.1921
10.806
11.4563
12.1454
12.8756
13.649
14.4673
15.3317
16.2426
17.2
18.2032
19.2512
20.3427
21.4768
22.6552
23.8849
25.1717
26.5197
27.9323
29.4122
30.9621
32.5846
34.2823
36.0578
37.9138
39.8526
41.877
43.9892
46.1918
48.4871
50.8772
53.3642
55.9502
58.637
61.4261
64.3191
67.3172
70.4213
73.6321
76.9501
80.3753
83.9075
87.546
91.2897
95.1373
99.0866
103.135
107.281
111.519
115.847
120.259
124.75
129.316
133.949
138.643
143.39
148.183
153.013
157.872
162.749
167.635
172.521
177.395
182.248
187.068
191.845
196.569
201.229
205.815
210.316
214.725
219.032
223.229
227.308
231.264
235.09
238.782
242.335
245.748
249.019
252.147
255.133
257.977
260.682
263.25
265.685
267.99
270.168
272.223
274.157
275.972
277.67
279.253
280.719
282.068
283.298
284.408
285.394
286.253
286.983
287.58
288.04
288.361
288.54
288.576
288.466
288.191
287.707
286.984
286.006
284.762
283.244
281.44
279.342
276.943
274.235
271.214
267.875
264.216
260.239
255.944
251.335
246.416
241.201
235.702
229.933
223.903
217.62
211.094
204.342
197.376
190.223
182.876
175.375
167.832
160.564
153.639
147.494
1.04345
0.644152
0.580982
0.589277
0.62584
0.679123
0.744824
0.821085
0.907051
1.00233
1.10674
1.22022
1.34277
1.47443
1.61527
1.7654
1.92497
2.09415
2.27315
2.46223
2.66167
2.87178
3.09292
3.32548
3.56988
3.82658
4.09611
4.37902
4.67593
4.98752
5.31455
5.65783
6.01827
6.39683
6.7946
7.21273
7.65248
8.1152
8.60233
9.11541
9.65606
10.226
10.8269
11.4607
12.1292
12.8341
13.5771
14.3598
15.1835
16.0493
16.9579
17.91
18.9062
19.9473
21.0348
22.1706
23.3574
24.599
25.899
27.2605
28.6865
30.1795
31.7423
33.3774
35.0875
36.8752
38.7429
40.6934
42.7292
44.8527
47.0664
49.3727
51.7739
54.2722
56.8696
59.5681
62.3696
65.2756
68.2875
71.4065
74.6337
77.9696
81.4146
84.9689
88.6322
92.4038
96.2827
100.267
104.356
108.547
112.836
117.22
121.696
126.26
130.906
135.628
140.421
145.278
150.193
155.156
160.161
165.198
170.259
175.334
180.414
185.487
190.545
195.577
200.573
205.521
210.413
215.238
219.986
224.648
229.216
233.679
238.031
242.264
246.371
250.346
254.185
257.882
261.433
264.837
268.091
271.193
274.144
276.943
279.59
282.087
284.434
286.633
288.685
290.59
292.349
293.963
295.43
296.75
297.923
298.945
299.816
300.533
301.093
301.494
301.731
301.804
301.71
301.445
300.963
300.239
299.259
298.014
296.494
294.69
292.596
290.203
287.504
284.492
281.161
277.507
273.527
269.221
264.591
259.633
254.347
248.748
242.848
236.661
230.201
223.458
216.434
209.145
201.586
193.813
185.767
177.743
169.889
162.389
155.222
148.664
1.40419
0.839598
0.737126
0.731933
0.764812
0.818862
0.887599
0.96811
1.05898
1.15951
1.26937
1.38843
1.51669
1.65421
1.80111
1.95757
2.12379
2.30001
2.48649
2.68354
2.89148
3.11066
3.34148
3.58433
3.83968
4.108
4.38981
4.6857
4.99629
5.32226
5.66436
6.0234
6.40025
6.79589
7.21133
7.64769
8.10615
8.58797
9.09449
9.62711
10.1873
10.7765
11.3964
12.0484
12.7342
13.4554
14.2134
15.0097
15.8457
16.7228
17.6423
18.6054
19.6137
20.6688
21.7729
22.9284
24.138
25.4048
26.7316
28.1213
29.5768
31.1007
32.6957
34.3646
36.1101
37.9349
39.8419
41.8336
43.9129
46.0824
48.3448
50.7027
53.1585
55.7149
58.374
61.1381
64.0094
66.9897
70.0807
73.2842
76.6013
80.0331
83.5805
87.244
91.0238
94.9196
98.931
103.057
107.296
111.647
116.107
120.674
125.343
130.112
134.976
139.93
144.968
150.085
155.273
160.526
165.836
171.195
176.593
182.022
187.473
192.935
198.398
203.852
209.286
214.691
220.054
225.366
230.617
235.795
240.891
245.895
250.797
255.588
260.259
264.802
269.209
273.472
277.585
281.542
285.338
288.968
292.428
295.715
298.828
301.765
304.523
307.104
309.506
311.731
313.777
315.646
317.336
318.846
320.176
321.325
322.29
323.068
323.658
324.054
324.253
324.252
324.048
323.625
322.929
321.953
320.691
319.134
317.276
315.108
312.623
309.812
306.669
303.186
299.359
295.179
290.645
285.758
280.526
274.933
268.974
262.66
256.01
249.042
241.785
234.21
226.294
218.066
209.48
200.709
191.885
183.202
174.792
166.787
159.097
151.907
1.7649
1.02691
0.884585
0.866086
0.894776
0.948782
1.01961
1.10335
1.19807
1.30276
1.41694
1.54041
1.67315
1.81525
1.9669
2.1283
2.29974
2.48151
2.67393
2.87735
3.09214
3.31869
3.55739
3.80868
4.07302
4.35091
4.64287
4.94949
5.27138
5.60923
5.96376
6.33578
6.72613
7.13576
7.56565
8.01685
8.49051
8.98781
9.51002
10.0584
10.6344
11.2395
11.8749
12.5423
13.2431
13.979
14.7513
15.5617
16.4117
17.303
18.2372
19.2162
20.2417
21.316
22.4414
23.6204
24.8557
26.1502
27.5067
28.928
30.417
31.9766
33.6095
35.3188
37.1074
38.9782
40.9342
42.9784
45.1138
47.3433
49.67
52.0967
54.6262
57.2615
60.0051
62.8597
65.8277
68.9115
72.1133
75.435
78.8785
82.4452
86.1364
89.9532
93.8963
97.9658
102.162
106.484
110.932
115.503
120.197
125.011
129.942
134.986
140.141
145.401
150.761
156.215
161.758
167.382
173.08
178.844
184.665
190.534
196.441
202.377
208.332
214.294
220.253
226.198
232.118
238.001
243.837
249.613
255.32
260.945
266.479
271.909
277.225
282.416
287.472
292.383
297.14
301.732
306.153
310.393
314.447
318.309
321.972
325.434
328.69
331.737
334.574
337.2
339.616
341.819
343.81
345.586
347.145
348.485
349.605
350.501
351.169
351.602
351.796
351.746
351.446
350.855
349.937
348.693
347.119
345.21
342.962
340.364
337.407
334.082
330.382
326.302
321.833
316.969
311.702
306.038
300.008
293.574
286.723
279.457
271.797
263.76
255.315
246.519
237.292
227.762
218.048
208.306
198.654
189.241
180.167
171.53
163.209
155.344
2.09207
1.19499
1.01791
0.987326
1.01173
1.06506
1.1371
1.22308
1.32058
1.42835
1.54574
1.67249
1.80856
1.95406
2.1092
2.27425
2.44953
2.63539
2.8322
3.04036
3.26024
3.49228
3.7369
3.99453
4.26566
4.55078
4.85043
5.16518
5.49565
5.84251
6.20649
6.58834
6.98893
7.40913
7.84992
8.31231
8.7974
9.30634
9.84033
10.4006
10.9886
11.6056
12.253
12.9323
13.6451
14.3929
15.1773
16
16.8627
17.7674
18.7158
19.71
20.7523
21.845
22.9906
24.1916
25.451
26.7714
28.1559
29.6074
31.1289
32.7235
34.3942
36.1443
37.9769
39.8952
41.9026
44.0023
46.1978
48.4922
50.8889
53.3913
56.0025
58.7258
61.5643
64.5209
67.5987
70.8004
74.1287
77.586
81.1746
84.8964
88.7534
92.7468
96.8781
101.148
105.557
110.105
114.791
119.616
124.577
129.673
134.901
140.258
145.742
151.346
157.067
162.9
168.837
174.872
180.998
187.207
193.489
199.836
206.239
212.686
219.167
225.672
232.19
238.708
245.216
251.701
258.152
264.556
270.903
277.179
283.373
289.472
295.464
301.337
307.078
312.674
318.114
323.385
328.476
333.376
338.074
342.563
346.834
350.88
354.694
358.269
361.603
364.693
367.538
370.139
372.493
374.595
376.441
378.029
379.355
380.414
381.202
381.709
381.928
381.852
381.47
380.707
379.562
378.034
376.122
373.826
371.145
368.063
364.568
360.652
356.305
351.522
346.295
340.614
334.467
327.849
320.762
313.208
305.175
296.643
287.644
278.227
268.259
257.983
247.396
236.655
225.862
215.169
204.681
194.51
184.734
175.428
166.466
157.965
2.3829
1.34309
1.13508
1.09335
1.11331
1.1653
1.23764
1.32482
1.42403
1.53376
1.65326
1.78217
1.92045
2.0682
2.22566
2.39312
2.57094
2.75951
2.95923
3.1705
3.39376
3.62942
3.87795
4.13979
4.41544
4.70538
5.01018
5.33038
5.66663
6.01956
6.3899
6.77841
7.1859
7.61326
8.06142
8.53138
9.02421
9.54102
10.083
10.6514
11.2475
11.8728
12.5285
13.2163
13.9377
14.6943
15.4878
16.32
17.1929
18.1084
19.0686
20.0757
21.1322
22.2405
23.4033
24.6233
25.9035
27.2468
28.6562
30.135
31.6864
33.3136
35.0201
36.8092
38.6846
40.6497
42.7082
44.8638
47.1203
49.4812
51.9503
54.5315
57.2283
60.0443
62.9833
66.0486
69.2437
72.5718
76.0361
79.6394
83.3846
87.274
91.31
95.4945
99.8291
104.315
108.954
113.745
118.689
123.785
129.033
134.43
139.975
145.665
151.497
157.465
163.566
169.794
176.143
182.605
189.174
195.841
202.596
209.432
216.337
223.301
230.313
237.363
244.438
251.527
258.618
265.699
272.757
279.78
286.757
293.673
300.518
307.277
313.939
320.488
326.911
333.194
339.322
345.28
351.055
356.632
361.998
367.139
372.047
376.713
381.125
385.27
389.142
392.738
396.055
399.093
401.859
404.337
406.519
408.399
409.975
411.238
412.182
412.796
413.069
412.992
412.529
411.605
410.229
408.404
406.128
403.399
400.211
396.554
392.418
387.791
382.66
377.016
370.855
364.164
356.929
349.135
340.759
331.847
322.397
312.329
301.723
290.735
279.296
267.62
255.761
243.874
232.063
220.453
209.141
198.219
187.751
177.8
168.24
159.178
2.63153
1.4692
1.2345
1.18269
1.19812
1.24813
1.31985
1.40719
1.50699
1.61756
1.73802
1.86798
2.00735
2.15623
2.31487
2.48358
2.66271
2.85268
3.05388
3.26674
3.49171
3.72921
3.97972
4.24371
4.52166
4.81408
5.12154
5.4446
5.78387
6.14003
6.51377
6.90586
7.3171
7.74836
8.20057
8.67471
9.17184
9.69306
10.2396
10.8126
11.4135
12.0436
12.7043
13.3973
14.1242
14.8866
15.6863
16.5253
17.4055
18.3292
19.2985
20.3159
21.3839
22.5051
23.6824
24.9186
26.217
27.5805
29.0125
30.5165
32.0958
33.7541
35.4951
37.3225
39.2402
41.2522
43.3626
45.5752
47.8945
50.3244
52.8691
55.533
58.32
61.2344
64.2802
67.4614
70.7819
74.2453
77.8552
81.6151
85.5281
89.5971
93.8249
98.2137
102.766
107.482
112.365
117.414
122.63
128.013
133.562
139.276
145.152
151.187
157.379
163.723
170.214
176.846
183.613
190.507
197.52
204.644
211.87
219.187
226.585
234.053
241.58
249.154
256.764
264.397
272.042
279.686
287.318
294.923
302.49
310.007
317.462
324.842
332.134
339.323
346.395
353.335
360.125
366.75
373.192
379.437
385.465
391.258
396.804
402.101
407.131
411.869
416.304
420.43
424.241
427.733
430.903
433.74
436.241
438.398
440.207
441.661
442.747
443.452
443.766
443.667
443.09
441.974
440.332
438.167
435.475
432.252
428.492
424.184
419.318
413.878
407.846
401.204
393.952
386.085
377.586
368.432
358.536
348.065
337.022
325.369
313.232
300.725
287.901
274.922
261.887
248.928
236.153
223.671
211.571
199.936
188.821
178.277
168.191
158.658
2.83288
1.57165
1.31506
1.25452
1.26547
1.31297
1.38322
1.4697
1.56899
1.67926
1.79956
1.92945
2.06881
2.21775
2.37647
2.5453
2.72457
2.91468
3.11604
3.32907
3.5542
3.79188
4.04258
4.30678
4.58498
4.87771
5.18553
5.50902
5.84881
6.20556
6.57999
6.97286
7.38498
7.81723
8.27053
8.74587
9.24431
9.76697
10.315
10.8898
11.4926
12.1248
12.7879
13.4835
14.2134
14.9793
15.7831
16.6267
17.5125
18.4425
19.4193
20.4454
21.5234
22.6563
23.847
25.0986
26.4144
27.7979
29.2525
30.782
32.3902
34.0809
35.8583
37.7265
39.6897
41.7524
43.919
46.194
48.5821
51.0879
53.7162
56.4715
59.3585
62.382
65.5463
68.8561
72.3155
75.9289
79.7
83.6328
87.7308
91.9973
96.4353
101.047
105.836
110.803
115.949
121.276
126.784
132.473
138.342
144.389
150.612
157.009
163.575
170.306
177.197
184.241
191.43
198.757
206.213
213.789
221.474
229.259
237.132
245.081
253.095
261.162
269.269
277.405
285.557
293.714
301.865
309.994
318.092
326.146
334.147
342.082
349.939
357.705
365.365
372.904
380.304
387.548
394.614
401.489
408.154
414.574
420.729
426.606
432.184
437.446
442.378
446.97
451.214
455.103
458.63
461.788
464.569
466.969
468.98
470.592
471.79
472.559
472.889
472.741
472.005
470.663
468.718
466.17
463.013
459.241
454.845
449.812
444.128
437.776
430.732
422.944
414.45
405.252
395.332
384.68
373.275
361.241
348.618
335.446
321.85
307.945
293.834
279.656
265.528
251.571
237.895
224.599
211.771
199.484
187.788
176.727
166.199
156.289
2.98447
1.64963
1.37629
1.30859
1.31531
1.35991
1.42796
1.51265
1.61041
1.71932
1.83838
1.96713
2.10544
2.25339
2.41117
2.57906
2.75738
2.9465
3.1468
3.35869
3.58259
3.81896
4.06825
4.33097
4.60762
4.89875
5.20492
5.52675
5.86487
6.21998
6.5928
6.98411
7.39474
7.82559
8.2776
8.75179
9.24924
9.7711
10.3186
10.893
11.4958
12.1283
12.7922
13.4891
14.2208
14.9892
15.7963
16.6442
17.5353
18.4718
19.4565
20.492
21.5813
22.7273
23.9334
25.2029
26.5393
27.9463
29.4279
30.9879
32.6307
34.3606
36.1819
38.0993
40.1175
42.2414
44.4759
46.8261
49.2972
51.8942
54.6224
57.4871
60.4934
63.6465
66.9515
70.4132
74.0364
77.8256
81.7851
85.919
90.2311
94.7249
99.4037
104.27
109.327
114.575
120.017
125.653
131.483
137.507
143.724
150.132
156.729
163.51
170.472
177.61
184.917
192.386
200.007
207.771
215.67
223.693
231.829
240.066
248.392
256.795
265.262
273.781
282.339
290.924
299.525
308.131
316.733
325.313
333.861
342.37
350.831
359.234
367.568
375.823
383.986
392.043
399.972
407.768
415.385
422.798
429.979
436.903
443.547
449.893
455.92
461.609
466.947
471.92
476.518
480.73
484.547
487.961
490.966
493.552
495.712
497.431
498.692
499.48
499.778
499.515
498.574
496.956
494.656
491.669
487.985
483.594
478.484
472.637
466.036
458.664
450.497
441.506
431.715
421.127
409.749
397.599
384.707
371.169
357.062
342.472
327.522
312.334
297.034
281.753
266.617
251.744
237.243
223.212
209.733
196.874
184.681
173.191
162.314
152.123
3.08607
1.70323
1.41837
1.34522
1.34815
1.38964
1.45495
1.53708
1.63243
1.73903
1.8559
1.98258
2.11891
2.26496
2.42089
2.58693
2.76335
2.95049
3.1487
3.35835
3.57986
3.81368
4.06026
4.32012
4.59378
4.8818
5.18477
5.50332
5.83813
6.18992
6.55945
6.94753
7.35505
7.78292
8.23216
8.7038
9.199
9.71896
10.2649
10.8384
11.4406
12.0733
12.7381
13.4368
14.1712
14.9434
15.7555
16.6098
17.5088
18.4552
19.4516
20.5012
21.607
22.7723
24.0007
25.296
26.6618
28.1024
29.6221
31.2251
32.9163
34.7003
36.5821
38.5669
40.6599
42.8665
45.1921
47.6426
50.2234
52.9404
55.7994
58.8061
61.9664
65.2857
68.7698
72.424
76.2534
80.2628
84.4564
88.8383
93.4125
98.1827
103.152
108.323
113.698
119.279
125.066
131.06
137.26
143.667
150.277
157.088
164.097
171.3
178.692
186.266
194.017
201.934
210.004
218.217
226.564
235.033
243.611
252.284
261.041
269.868
278.75
287.674
296.627
305.598
314.576
323.552
332.524
341.464
350.366
359.228
368.043
376.805
385.507
394.141
402.697
411.168
419.516
427.71
435.716
443.507
451.057
458.34
465.333
472.016
478.366
484.364
489.994
495.24
500.088
504.526
508.543
512.128
515.273
517.967
520.198
521.948
523.196
523.93
524.112
523.641
522.425
520.458
517.732
514.233
509.949
504.866
498.966
492.231
484.643
476.185
466.845
456.612
445.505
433.536
420.734
407.147
392.834
377.886
362.404
346.499
330.298
313.935
297.543
281.258
265.207
249.511
234.279
219.606
205.571
192.238
179.646
167.826
156.701
146.33
3.13951
1.73332
1.44204
1.36525
1.36502
1.40345
1.46568
1.54473
1.63699
1.74058
1.85453
1.97841
2.11207
2.25555
2.40895
2.57245
2.74628
2.93072
3.12607
3.33271
3.55103
3.78146
4.02448
4.2806
4.55036
4.83436
5.13322
5.44762
5.77826
6.12594
6.49146
6.87571
7.27962
7.70421
8.15054
8.61975
9.11307
9.63179
10.1773
10.7511
11.3548
11.99
12.6586
13.3624
14.1037
14.8845
15.7072
16.5744
17.4889
18.4534
19.4712
20.5455
21.6798
22.8778
24.1436
25.4812
26.8949
28.3892
29.9691
31.6394
33.4053
35.2723
37.2459
39.3318
41.5359
43.8642
46.3229
48.9181
51.6563
54.5437
57.5868
60.7917
64.1648
67.7122
71.4398
75.3535
79.4588
83.7607
88.2627
92.968
97.8809
103.005
108.342
113.896
119.667
125.656
131.864
138.29
144.933
151.79
158.859
166.136
173.616
181.294
189.163
197.216
205.447
213.849
222.393
231.071
239.874
248.788
257.799
266.891
276.05
285.262
294.511
303.781
313.061
322.339
331.604
340.848
350.065
359.242
368.375
377.461
386.499
395.484
404.417
413.293
422.101
430.806
439.375
447.779
455.99
463.98
471.724
479.199
486.379
493.242
499.765
505.929
511.713
517.1
522.073
526.618
530.72
534.368
537.548
540.246
542.446
544.126
545.265
545.846
545.805
545.013
543.425
541.02
537.78
533.689
528.728
522.879
516.123
508.443
499.822
490.249
479.722
468.245
455.839
442.532
428.37
413.421
397.765
381.501
364.745
347.625
330.276
312.841
295.46
278.273
261.414
245.002
229.148
213.944
199.466
185.771
172.893
160.856
149.592
139.146
3.1486
1.74148
1.44861
1.37007
1.36756
1.40325
1.46241
1.53815
1.62699
1.72716
1.83782
1.95856
2.08925
2.22985
2.38044
2.54111
2.71206
2.8935
3.08573
3.28909
3.50396
3.73078
3.97006
4.22231
4.48813
4.76814
5.06303
5.37351
5.7004
6.04455
6.40686
6.78832
7.18998
7.61296
8.05846
8.52775
9.0222
9.54327
10.0925
10.6716
11.2823
11.9266
12.6064
13.324
14.0816
14.882
15.7276
16.6215
17.5667
18.5666
19.6247
20.7449
21.9312
23.1878
24.5195
25.931
27.427
29.0128
30.6938
32.4759
34.3649
36.367
38.4885
40.7359
43.1157
45.6346
48.2996
51.1174
54.095
57.2393
60.557
64.0549
67.7395
71.617
75.6937
79.9753
84.468
89.1787
94.1069
99.2534
104.623
110.219
116.042
122.094
128.375
134.885
141.622
148.585
155.77
163.173
170.79
178.615
186.64
194.86
203.264
211.845
220.59
229.488
238.519
247.67
256.926
266.272
275.69
285.163
294.675
304.211
313.753
323.284
332.79
342.264
351.695
361.076
370.403
379.67
388.876
398.028
407.124
416.165
425.159
434.081
442.911
451.621
460.188
468.585
476.787
484.768
492.506
499.975
507.152
514.012
520.532
526.691
532.466
537.837
542.785
547.293
551.343
554.919
558.004
560.58
562.624
564.112
565.022
565.32
564.91
563.687
561.617
558.67
554.823
550.052
544.336
537.654
529.987
521.318
511.635
500.933
489.22
476.512
462.838
448.239
432.779
416.539
399.616
382.123
364.186
345.947
327.55
309.148
290.888
272.916
255.367
238.363
222.013
206.407
191.614
177.686
164.65
152.521
141.238
130.831
3.11906
1.72994
1.43997
1.36172
1.35813
1.39183
1.44835
1.521
1.60654
1.70342
1.81096
1.92882
2.05681
2.19486
2.34295
2.50113
2.66956
2.84842
3.03799
3.23861
3.45069
3.6747
3.91117
4.1607
4.42392
4.70152
4.99427
5.30298
5.62859
5.97208
6.33451
6.71703
7.12087
7.54734
7.99785
8.47389
8.97708
9.50912
10.0719
10.6673
11.2975
11.9648
12.6715
13.4204
14.2142
15.056
15.949
16.8967
17.9028
18.9714
20.1068
21.3135
22.5964
23.9609
25.4125
26.9575
28.6009
30.3486
32.2073
34.1839
36.2851
38.5182
40.8903
43.4088
46.0808
48.914
51.9156
55.0932
58.4539
62.0049
65.753
69.7048
73.8664
78.2438
82.8422
87.6665
92.721
98.0093
103.533
109.292
115.289
121.523
127.996
134.705
141.648
148.824
156.228
163.857
171.704
179.764
188.029
196.49
205.139
213.964
222.957
232.103
241.391
250.805
260.326
269.937
279.619
289.356
299.125
308.902
318.679
328.434
338.143
347.791
357.365
366.856
376.264
385.593
394.845
404.014
413.103
422.129
431.082
439.952
448.736
457.421
466
474.451
482.754
490.889
498.833
506.563
514.058
521.293
528.243
534.886
541.196
547.15
552.723
557.894
562.64
566.941
570.774
574.119
576.955
579.257
580.997
582.147
582.682
582.539
581.604
579.818
577.141
573.537
568.978
563.435
556.883
549.299
540.663
530.962
520.189
508.345
495.445
481.517
466.599
450.749
434.041
416.572
398.452
379.807
360.779
341.518
322.181
302.926
283.911
265.284
247.182
229.728
213.028
197.166
182.206
168.19
155.139
143.056
131.884
121.636
3.05712
1.70141
1.41878
1.34324
1.34032
1.37343
1.42838
1.49876
1.58177
1.6763
1.78183
1.898
2.02452
2.16124
2.30809
2.46511
2.63244
2.8103
2.99897
3.19882
3.41035
3.63409
3.87068
4.12082
4.3853
4.66489
4.96038
5.27284
5.60339
5.95325
6.32374
6.7163
7.13248
7.57392
8.04238
8.53976
9.06809
9.62953
10.2264
10.8613
11.5369
12.2562
13.0222
13.8385
14.7087
15.6367
16.6268
17.6835
18.8116
20.0165
21.3037
22.6791
24.1489
25.7198
27.3988
29.1929
31.1095
33.156
35.3403
37.6704
40.1543
42.8002
45.6159
48.6095
51.7886
55.1609
58.7339
62.5146
66.5098
70.7258
75.1684
79.8426
84.7528
89.9028
95.2956
100.933
106.817
112.948
119.326
125.947
132.812
139.915
147.254
154.824
162.619
170.635
178.865
187.303
195.939
204.764
213.767
222.936
232.261
241.727
251.323
261.037
270.85
280.744
290.704
300.701
310.707
320.719
330.692
340.592
350.393
360.091
369.684
379.164
388.524
397.763
406.882
415.897
424.823
433.643
442.357
450.969
459.477
467.877
476.163
484.324
492.345
500.224
507.953
515.525
522.917
530.112
537.087
543.819
550.285
556.46
562.318
567.835
572.983
577.739
582.075
585.967
589.39
592.317
594.72
596.568
597.828
598.467
598.44
597.661
596.043
593.543
590.119
585.731
580.343
573.924
566.444
557.879
548.21
537.426
525.524
512.513
498.415
483.268
467.123
450.049
432.136
413.492
394.243
374.53
354.505
334.33
314.173
294.201
274.575
255.446
236.952
219.214
202.332
186.383
171.421
157.481
144.571
132.683
121.761
111.801
2.97008
1.65961
1.38934
1.31971
1.32007
1.35491
1.41036
1.48023
1.56277
1.65754
1.76377
1.88087
2.00852
2.14657
2.29501
2.45392
2.62355
2.80432
2.99631
3.20013
3.41641
3.64587
3.88933
4.14764
4.42177
4.71275
5.02173
5.35002
5.69911
6.07064
6.46645
6.8885
7.33896
7.82013
8.33448
8.88467
9.47356
10.1042
10.78
11.5045
12.2817
13.1159
14.0117
14.9742
16.0087
17.1212
18.3177
19.605
20.99
22.4804
24.0839
25.809
27.6641
29.6582
31.8006
34.1004
36.5671
39.2099
42.0381
45.0606
48.2859
51.7221
55.3766
59.2563
63.3675
67.7158
72.3062
77.1431
82.23
87.5696
93.1634
99.0118
105.114
111.469
118.075
124.927
132.024
139.36
146.931
154.729
162.748
170.981
179.417