/*--------------------------------*- C++ -*----------------------------------*\
| =========                 |                                                 |
| \\      /  F ield         | OpenFOAM: The Open Source CFD Toolbox           |
|  \\    /   O peration     | Version:  1.4.2                                 |
|   \\  /    A nd           | Web:      http://www.openfoam.org               |
|    \\/     M anipulation  |                                                 |
\*---------------------------------------------------------------------------*/
FoamFile
{
    version     2.0;
    format      ascii;
    class       volScalarField;
    object      k;
    location    "650";
}
// * * * * * * * * * * * * * * * * * * * * * * * * * * * * * * * * * * * * * //

dimensions      [0 2 -2 0 0 0 0];

internalField   nonuniform List<scalar> 
12225
(
0.315115
0.271063
0.237885
0.212505
0.1929
0.17769
0.165905
0.156845
0.14999
0.144947
0.14141
0.139138
0.137933
0.137632
0.138097
0.139208
0.140862
0.143166
0.365357
0.357609
0.353827
0.353685
0.356737
0.362617
0.371003
0.381599
0.394136
0.408365
0.424048
0.440955
0.458865
0.477557
0.496816
0.516419
0.536062
0.556331
0.370187
0.364636
0.360183
0.356898
0.354768
0.35374
0.353744
0.354697
0.356513
0.35911
0.362405
0.366319
0.370769
0.375669
0.380919
0.386395
0.391907
0.397306
0.371735
0.367478
0.363488
0.359996
0.357015
0.354545
0.352574
0.351071
0.350002
0.349327
0.349007
0.349003
0.349274
0.349779
0.350473
0.351304
0.352207
0.353145
0.372438
0.36905
0.36559
0.362328
0.359334
0.35663
0.354215
0.35208
0.350207
0.348579
0.347176
0.345975
0.344956
0.344095
0.343368
0.34275
0.342218
0.341759
0.37275
0.369943
0.366992
0.364059
0.36125
0.35861
0.356154
0.353885
0.351797
0.349883
0.34813
0.346528
0.345062
0.343721
0.34249
0.341357
0.340311
0.339355
0.372878
0.37041
0.367854
0.365269
0.362722
0.360258
0.357904
0.355675
0.353577
0.351609
0.349766
0.348042
0.346429
0.34492
0.343506
0.342179
0.340935
0.339786
0.372918
0.370599
0.368258
0.365906
0.363576
0.361295
0.359086
0.356964
0.354939
0.353014
0.35119
0.349465
0.347835
0.346295
0.34484
0.343463
0.342164
0.340957
0.372932
0.370688
0.368473
0.366277
0.364109
0.361983
0.359911
0.357906
0.355975
0.354124
0.352356
0.35067
0.349066
0.34754
0.34609
0.344711
0.343402
0.342181
0.372937
0.37073
0.368595
0.36651
0.364471
0.362481
0.360543
0.358662
0.356843
0.355091
0.353406
0.351791
0.350245
0.348767
0.347355
0.346006
0.34472
0.343516
0.372937
0.370746
0.368652
0.366634
0.364684
0.362795
0.360966
0.359196
0.357485
0.355834
0.354244
0.352715
0.351246
0.349836
0.348484
0.347188
0.34595
0.344787
0.372936
0.370748
0.36867
0.366685
0.364785
0.36296
0.361206
0.359517
0.357891
0.356327
0.354821
0.353373
0.351981
0.350644
0.34936
0.348127
0.346947
0.345837
0.372936
0.370745
0.36867
0.366698
0.364819
0.363026
0.361312
0.359672
0.358101
0.356595
0.35515
0.353764
0.352435
0.351159
0.349934
0.348758
0.347634
0.346577
0.372937
0.370743
0.368665
0.366694
0.36482
0.363038
0.361341
0.359723
0.358178
0.356703
0.355293
0.353944
0.352653
0.351417
0.350233
0.349099
0.348016
0.347
0.372939
0.370742
0.368662
0.366687
0.364813
0.363031
0.361337
0.359724
0.358188
0.356724
0.355328
0.353995
0.352721
0.351505
0.350342
0.34923
0.34817
0.347178
0.372943
0.370744
0.368661
0.366683
0.364805
0.363021
0.361325
0.359711
0.358175
0.356712
0.355317
0.353987
0.352718
0.351507
0.350351
0.349247
0.348196
0.347213
0.372948
0.370749
0.368663
0.366683
0.364802
0.363015
0.361315
0.359699
0.358159
0.356694
0.355297
0.353965
0.352694
0.351482
0.350325
0.349222
0.348172
0.34719
0.372951
0.370752
0.368664
0.366683
0.3648
0.363011
0.361309
0.35969
0.358148
0.356679
0.355279
0.353944
0.35267
0.351455
0.350295
0.349188
0.348135
0.347151
0.372947
0.370748
0.368661
0.366679
0.364796
0.363006
0.361303
0.359681
0.358136
0.356663
0.355259
0.353918
0.352638
0.351416
0.350249
0.349134
0.348072
0.347079
0.372942
0.370743
0.368656
0.366675
0.36479
0.362997
0.361289
0.359661
0.358108
0.356624
0.355207
0.353852
0.352556
0.351315
0.350128
0.348992
0.34791
0.346895
0.372938
0.370738
0.368651
0.366666
0.364774
0.362969
0.361244
0.359594
0.358014
0.3565
0.355048
0.353655
0.352318
0.351035
0.349803
0.348622
0.347493
0.346432
0.372934
0.370732
0.368636
0.366632
0.364712
0.362869
0.361095
0.359387
0.357741
0.356156
0.354627
0.353156
0.351738
0.350374
0.349062
0.347801
0.346594
0.34546
0.372927
0.37071
0.36858
0.36652
0.364521
0.36258
0.360694
0.358864
0.357089
0.355372
0.353712
0.35211
0.350567
0.349082
0.347655
0.346286
0.344978
0.343749
0.37291
0.370639
0.368408
0.366204
0.36403
0.361894
0.359802
0.357765
0.355788
0.353878
0.352037
0.350269
0.348572
0.346949
0.345396
0.343915
0.342505
0.341188
0.372856
0.370429
0.367957
0.365456
0.362964
0.36051
0.358116
0.3558
0.353574
0.351443
0.349411
0.347475
0.345636
0.343891
0.342236
0.340667
0.339186
0.337809
0.372693
0.369884
0.366925
0.36392
0.360959
0.358089
0.355338
0.35272
0.350244
0.347909
0.345714
0.343653
0.34172
0.33991
0.338216
0.336631
0.335151
0.333789
0.37223
0.368599
0.364817
0.361096
0.357537
0.354185
0.351059
0.348165
0.345497
0.343047
0.340806
0.33876
0.336897
0.335202
0.333664
0.332268
0.331005
0.329877
0.370946
0.365685
0.36055
0.355801
0.35149
0.347644
0.344266
0.341333
0.338816
0.336679
0.334887
0.333407
0.332207
0.331256
0.330529
0.33
0.329646
0.329455
0.366354
0.35712
0.349251
0.3429
0.337988
0.334392
0.331962
0.330545
0.330001
0.330208
0.331059
0.332461
0.334335
0.33661
0.339225
0.342127
0.345262
0.348625
0.329178
0.293648
0.265348
0.242403
0.223549
0.20789
0.194768
0.183687
0.174271
0.166227
0.159326
0.153385
0.148254
0.143816
0.139969
0.136633
0.133739
0.131229
0.00204267
0.00262609
0.00334553
0.00405593
0.00472291
0.00535965
0.00600441
0.00671596
0.00747434
0.00826894
0.00910128
0.00998284
0.0109399
0.011943
0.0129864
0.014079
0.0152235
0.0164198
0.017667
0.0189639
0.0203094
0.0217021
0.0231409
0.0246249
0.0261534
0.0277259
0.0293422
0.0310023
0.0327067
0.0344561
0.0362515
0.0380943
0.0399862
0.0419296
0.043927
0.0459815
0.0480968
0.0502773
0.052528
0.054855
0.0572655
0.0597685
0.0623748
0.0650985
0.0679575
0.0709761
0.0741873
0.0776374
0.0813924
0.0855471
0.0902394
0.0956694
0.10213
0.110049
0.12007
0.133169
0.139237
0.145106
0.151159
0.157424
0.163911
0.170626
0.177573
0.18476
0.192191
0.199872
0.207806
0.215999
0.224453
0.233173
0.242162
0.251421
0.260954
0.270761
0.280842
0.291199
0.301829
0.312731
0.323902
0.33534
0.347038
0.358992
0.371193
0.383635
0.396307
0.409199
0.422297
0.43559
0.44906
0.462693
0.476468
0.490367
0.504368
0.518448
0.532583
0.546748
0.560915
0.575056
0.589142
0.603142
0.617026
0.630762
0.644319
0.657664
0.670767
0.683595
0.696119
0.70831
0.72014
0.731584
0.742617
0.75322
0.763374
0.773064
0.782279
0.791013
0.799262
0.807028
0.814317
0.821141
0.827515
0.833462
0.839006
0.844177
0.84901
0.853541
0.857811
0.861859
0.865728
0.869456
0.873081
0.876635
0.880147
0.883639
0.887125
0.890612
0.894096
0.897568
0.901008
0.904389
0.907679
0.910839
0.913826
0.916597
0.919107
0.921316
0.923191
0.924713
0.925901
0.926793
0.927065
0.926579
0.925272
0.923079
0.919938
0.915791
0.910582
0.904265
0.896798
0.888152
0.878306
0.867247
0.854973
0.841496
0.826837
0.81103
0.794114
0.776145
0.757187
0.737303
0.716567
0.695054
0.672841
0.650018
0.62669
0.602903
0.578911
0.553973
0.529584
0.499673
0.0028818
0.00484259
0.00656618
0.00813049
0.00963562
0.011147
0.012711
0.0143054
0.0159638
0.0176716
0.0194475
0.0213034
0.0232455
0.0252748
0.0273915
0.0295954
0.0318853
0.0342599
0.036718
0.0392581
0.0418787
0.0445787
0.0473571
0.0502131
0.0531463
0.0561565
0.0592441
0.0624099
0.0656551
0.0689814
0.072391
0.0758868
0.0794723
0.0831515
0.0869292
0.090811
0.094803
0.0989126
0.103148
0.107518
0.112033
0.116705
0.121547
0.126575
0.131805
0.137258
0.142955
0.148922
0.155188
0.161786
0.168753
0.176126
0.183938
0.192195
0.200846
0.209705
0.218314
0.227096
0.23617
0.245569
0.25531
0.265407
0.275871
0.286713
0.297942
0.309569
0.321602
0.334052
0.346926
0.360232
0.373978
0.388171
0.402816
0.417918
0.433482
0.44951
0.466005
0.482968
0.500397
0.518291
0.536646
0.555456
0.574713
0.59441
0.614533
0.635069
0.656001
0.677311
0.698978
0.720976
0.743278
0.765855
0.788674
0.811698
0.834889
0.858203
0.881597
0.905022
0.928428
0.951764
0.974974
0.998001
1.02079
1.04328
1.06541
1.08713
1.10838
1.12909
1.14923
1.16872
1.18754
1.20562
1.22294
1.23945
1.25513
1.26996
1.28391
1.29699
1.30918
1.3205
1.33096
1.34059
1.34941
1.35746
1.3648
1.37148
1.37754
1.38307
1.38813
1.39278
1.3971
1.40116
1.40503
1.40876
1.41241
1.41603
1.41966
1.42333
1.42706
1.43087
1.43475
1.43872
1.44274
1.44682
1.45094
1.45506
1.45915
1.46321
1.4672
1.47071
1.47362
1.47592
1.47755
1.47839
1.47836
1.47735
1.47526
1.47197
1.4674
1.46143
1.45398
1.44497
1.43432
1.42198
1.40788
1.392
1.37431
1.3548
1.33349
1.31038
1.2855
1.25888
1.23051
1.20042
1.16866
1.13519
1.10037
1.06372
1.02481
0.987886
0.00442937
0.00753761
0.0101292
0.0125144
0.0148221
0.0171004
0.0193459
0.0215995
0.0238916
0.0262426
0.0286682
0.031179
0.0337822
0.0364824
0.0392817
0.042181
0.0451801
0.048279
0.0514773
0.0547746
0.0581706
0.0616653
0.0652585
0.0689505
0.0727417
0.076633
0.0806255
0.0847209
0.0889212
0.0932292
0.0976481
0.102182
0.106835
0.111613
0.116522
0.121569
0.126762
0.13211
0.137622
0.14331
0.149186
0.155262
0.161554
0.168077
0.174848
0.181886
0.189208
0.196834
0.204783
0.213073
0.221719
0.230732
0.240117
0.249864
0.259948
0.27033
0.280985
0.291987
0.303377
0.315181
0.327416
0.340098
0.35324
0.366857
0.380961
0.395566
0.410684
0.426327
0.442507
0.459234
0.476518
0.494368
0.512794
0.531802
0.551399
0.57159
0.592378
0.613767
0.635757
0.658346
0.681533
0.70531
0.729673
0.75461
0.780109
0.806155
0.832731
0.859814
0.88738
0.915403
0.943849
0.972684
1.00187
1.03136
1.06112
1.09109
1.12121
1.15144
1.1817
1.21194
1.24209
1.27208
1.30183
1.33128
1.36036
1.38897
1.41707
1.44456
1.47139
1.49748
1.52277
1.5472
1.57072
1.59327
1.61482
1.63533
1.65477
1.67312
1.69038
1.70654
1.72161
1.7356
1.74855
1.76049
1.77147
1.78154
1.79076
1.7992
1.80693
1.81404
1.82059
1.82668
1.83237
1.83774
1.84286
1.84778
1.85257
1.85726
1.86189
1.86647
1.87103
1.87556
1.88005
1.88451
1.88891
1.89321
1.8974
1.90144
1.90523
1.90822
1.91045
1.91188
1.91241
1.91194
1.91035
1.90752
1.90333
1.89766
1.89038
1.88138
1.87055
1.85781
1.84306
1.82624
1.80728
1.78617
1.76287
1.7374
1.70979
1.68007
1.64829
1.61452
1.57878
1.54119
1.50174
1.4606
1.41763
1.37251
1.32621
1.28398
0.00609331
0.0105702
0.0141542
0.0173507
0.0203343
0.0231709
0.0259393
0.0286945
0.0314757
0.0343116
0.0372228
0.0402234
0.0433233
0.0465289
0.0498445
0.0532724
0.0568142
0.0604711
0.0642441
0.0681339
0.0721415
0.0762677
0.0805137
0.0848803
0.0893691
0.0939816
0.0987198
0.103586
0.108583
0.113714
0.118984
0.124396
0.129957
0.135673
0.141551
0.147599
0.153826
0.160242
0.166858
0.173685
0.180738
0.188029
0.195573
0.203386
0.211485
0.219886
0.228606
0.237662
0.247068
0.256839
0.266986
0.277518
0.288441
0.29976
0.311477
0.323594
0.336127
0.349104
0.362552
0.376492
0.390943
0.405921
0.421446
0.437532
0.454196
0.471455
0.489323
0.507816
0.526948
0.546733
0.567183
0.588312
0.61013
0.632647
0.655872
0.679813
0.704477
0.729867
0.755986
0.782836
0.810415
0.838719
0.867742
0.897476
0.927909
0.959026
0.99081
1.02324
1.05628
1.08992
1.12412
1.15883
1.19402
1.22965
1.26566
1.30199
1.3386
1.3754
1.41235
1.44935
1.48635
1.52325
1.55998
1.59645
1.63258
1.66827
1.70345
1.73802
1.7719
1.805
1.83725
1.86857
1.8989
1.92815
1.95629
1.98325
2.00899
2.03348
2.05669
2.07861
2.09923
2.11856
2.13661
2.1534
2.16897
2.18337
2.19664
2.20885
2.22007
2.23037
2.23983
2.24853
2.25655
2.26396
2.27083
2.27723
2.28322
2.28884
2.29412
2.2991
2.30378
2.30816
2.31225
2.31602
2.31944
2.32249
2.32513
2.32736
2.32874
2.32901
2.32821
2.32628
2.32313
2.31866
2.31275
2.30529
2.29615
2.28521
2.27235
2.25744
2.24037
2.22107
2.19946
2.17547
2.14904
2.12017
2.08886
2.05509
2.01895
1.98048
1.93973
1.89681
1.8517
1.80457
1.75515
1.70353
1.64973
1.596
1.54249
1.49281
0.00784711
0.0137563
0.0183306
0.0222344
0.0257579
0.0290744
0.032286
0.0354601
0.0386443
0.0418735
0.0451736
0.0485632
0.0520557
0.0556608
0.0593852
0.0632337
0.0672101
0.0713172
0.0755574
0.079933
0.084446
0.0890981
0.0938913
0.0988275
0.103909
0.109137
0.114514
0.120045
0.125731
0.131576
0.137586
0.143765
0.15012
0.156657
0.163384
0.17031
0.177445
0.184799
0.192383
0.20021
0.208294
0.216648
0.225287
0.234228
0.243485
0.253075
0.263015
0.27332
0.284005
0.295086
0.306575
0.318485
0.330828
0.343617
0.356866
0.37059
0.384809
0.399546
0.414824
0.430665
0.447089
0.464116
0.481766
0.50006
0.519016
0.538653
0.558991
0.580048
0.601842
0.624389
0.647706
0.671809
0.696711
0.722427
0.748969
0.776347
0.804571
0.833649
0.863586
0.894387
0.926052
0.958582
0.991972
1.02622
1.0613
1.09723
1.13396
1.17149
1.2098
1.24884
1.2886
1.32903
1.3701
1.41174
1.45392
1.49657
1.53963
1.58304
1.62672
1.67058
1.71456
1.75855
1.80248
1.84624
1.88973
1.93286
1.97552
2.01762
2.05904
2.0997
2.13949
2.17832
2.2161
2.25274
2.28817
2.32232
2.35512
2.38652
2.41647
2.44493
2.47189
2.49732
2.52123
2.5436
2.56447
2.58386
2.6018
2.61835
2.63356
2.6475
2.66023
2.67182
2.68236
2.69191
2.70055
2.70835
2.71535
2.72161
2.72717
2.73204
2.73624
2.73976
2.7426
2.74472
2.74609
2.74668
2.74644
2.74533
2.74269
2.73859
2.73301
2.72591
2.71721
2.70682
2.69462
2.68053
2.66442
2.64618
2.62571
2.60288
2.57758
2.54976
2.51936
2.48633
2.4506
2.41221
2.37116
2.32745
2.28117
2.2324
2.18113
2.12751
2.07142
2.013
1.9515
1.88877
1.82579
1.76432
1.70407
1.64675
0.00956534
0.0168874
0.0223208
0.0268182
0.0308367
0.0345897
0.0381985
0.0417416
0.0452747
0.0488388
0.0524649
0.0561761
0.0599902
0.0639203
0.0679766
0.0721669
0.0764975
0.0809733
0.0855988
0.0903773
0.0953122
0.100406
0.105662
0.111081
0.116668
0.122423
0.12835
0.134452
0.140733
0.147197
0.153849
0.160694
0.167738
0.17499
0.182456
0.190147
0.198072
0.206241
0.214668
0.223363
0.232342
0.241618
0.251206
0.261123
0.271383
0.282003
0.293001
0.304393
0.316194
0.328423
0.341094
0.354226
0.367834
0.381936
0.396552
0.411701
0.427407
0.443693
0.460581
0.478096
0.49626
0.515097
0.534629
0.554881
0.575874
0.597631
0.620174
0.643527
0.667709
0.692742
0.718646
0.74544
0.773143
0.801771
0.831342
0.86187
0.893368
0.925847
0.959318
0.993788
1.02926
1.06574
1.10323
1.14173
1.18122
1.2217
1.26316
1.30558
1.34893
1.3932
1.43835
1.48434
1.53113
1.57869
1.62695
1.67585
1.72534
1.77533
1.82576
1.87654
1.92758
1.97879
2.03006
2.08129
2.13237
2.18319
2.23363
2.28357
2.3329
2.3815
2.42925
2.47603
2.52174
2.56627
2.60952
2.65139
2.69179
2.73066
2.76791
2.80349
2.83734
2.86943
2.89973
2.92821
2.95488
2.97973
3.00278
3.02405
3.0436
3.06146
3.07769
3.09235
3.10551
3.11724
3.1276
3.13666
3.14448
3.15111
3.15658
3.16091
3.16411
3.16617
3.16708
3.16678
3.16524
3.16241
3.15825
3.15255
3.14475
3.13501
3.12335
3.10972
3.09406
3.0763
3.05634
3.03411
3.0095
2.98244
2.95283
2.92054
2.88548
2.8476
2.8069
2.76334
2.71684
2.66745
2.61523
2.56018
2.50231
2.44182
2.37857
2.31273
2.24386
2.17289
2.10057
2.02837
1.95741
1.88887
1.82204
1.75761
0.011141
0.0197449
0.0259105
0.0309477
0.0354167
0.0395657
0.0435323
0.0474048
0.0512458
0.0551016
0.0590076
0.0629915
0.0670747
0.0712745
0.0756045
0.0800757
0.0846972
0.0894763
0.0944192
0.0995312
0.104816
0.110279
0.115921
0.121746
0.127758
0.133958
0.14035
0.146938
0.153724
0.160714
0.167912
0.175324
0.182957
0.190818
0.198916
0.207258
0.215857
0.224722
0.233866
0.243301
0.253042
0.263102
0.273497
0.284242
0.295355
0.306853
0.318752
0.33107
0.343827
0.35704
0.370728
0.384912
0.399611
0.414847
0.430643
0.447021
0.464007
0.481626
0.499903
0.518863
0.538534
0.558941
0.58011
0.602069
0.624843
0.648459
0.672942
0.698319
0.724616
0.751855
0.780064
0.809263
0.839477
0.870727
0.903033
0.936414
0.970889
1.00647
1.04318
1.08102
1.12001
1.16015
1.20144
1.2439
1.28751
1.33227
1.37817
1.4252
1.47335
1.52258
1.57287
1.62419
1.6765
1.72975
1.7839
1.83887
1.89462
1.95106
2.00812
2.06571
2.12373
2.18208
2.24066
2.29935
2.35803
2.41657
2.47485
2.53273
2.59007
2.64675
2.70261
2.75753
2.81137
2.864
2.9153
2.96514
3.01343
3.06004
3.10489
3.14788
3.18894
3.228
3.265
3.2999
3.33266
3.36326
3.39169
3.41794
3.44205
3.46403
3.48392
3.50177
3.51764
3.53157
3.54364
3.5539
3.56241
3.56922
3.57436
3.57785
3.5797
3.5799
3.57841
3.57518
3.57015
3.56327
3.5545
3.54333
3.52957
3.51335
3.49469
3.47359
3.45
3.42386
3.3951
3.36365
3.32945
3.29242
3.25251
3.20961
3.16362
3.11448
3.06225
3.00693
2.94843
2.88675
2.82206
2.7544
2.68353
2.60997
2.53315
2.45382
2.37274
2.2909
2.20916
2.12875
2.05055
1.97535
1.90224
1.83144
0.0124801
0.0222587
0.0290501
0.0345486
0.0394075
0.0439025
0.0481833
0.0523456
0.0564564
0.060566
0.0647135
0.0689302
0.0732411
0.0776667
0.082224
0.0869269
0.0917872
0.0968145
0.102017
0.107401
0.112972
0.118735
0.124694
0.130852
0.137212
0.143778
0.150552
0.157539
0.164742
0.172165
0.179814
0.187695
0.195815
0.204179
0.212798
0.221681
0.230836
0.240276
0.250013
0.260059
0.270428
0.281135
0.292196
0.303626
0.315443
0.327664
0.340308
0.353395
0.366943
0.380973
0.395508
0.410568
0.426177
0.44236
0.45914
0.476545
0.494601
0.513335
0.532777
0.552953
0.573895
0.59563
0.618189
0.641602
0.665898
0.691108
0.717262
0.744389
0.772519
0.801681
0.831904
0.863215
0.895642
0.92921
0.963945
0.99987
1.03701
1.07538
1.115
1.15589
1.19807
1.24153
1.28631
1.33239
1.37978
1.42849
1.47851
1.52982
1.58242
1.63628
1.69139
1.74771
1.80521
1.86383
1.92355
1.98429
2.04599
2.10858
2.17198
2.23609
2.30082
2.36607
2.43171
2.49762
2.56368
2.62974
2.69567
2.76131
2.82651
2.89112
2.95498
3.01793
3.07981
3.14048
3.19979
3.25758
3.31373
3.3681
3.42057
3.47102
3.51934
3.56545
3.60925
3.65067
3.68964
3.72611
3.76005
3.79142
3.82022
3.84644
3.87011
3.89125
3.90989
3.92609
3.93989
3.95135
3.96051
3.96744
3.97215
3.97467
3.97501
3.97314
3.96902
3.96259
3.95378
3.94252
3.92873
3.91165
3.89146
3.86826
3.84209
3.81295
3.78082
3.74566
3.70743
3.66606
3.62149
3.57369
3.52264
3.46826
3.41042
3.34908
3.28427
3.21612
3.14456
3.06943
2.99097
2.90954
2.82412
2.73643
2.64645
2.55514
2.46323
2.37184
2.28174
2.19388
2.10895
2.02754
1.94865
1.87229
0.013613
0.0244142
0.031713
0.0375825
0.0427597
0.0475418
0.0520868
0.0564942
0.0608342
0.0651595
0.0695117
0.0739246
0.0784261
0.0830394
0.0877841
0.0926766
0.0977307
0.102958
0.108368
0.113969
0.119767
0.125768
0.131975
0.138395
0.145029
0.151881
0.158956
0.166256
0.173787
0.181552
0.189556
0.197806
0.206309
0.215071
0.224102
0.23341
0.243005
0.252899
0.263104
0.273632
0.284498
0.295717
0.307303
0.319274
0.331648
0.344443
0.357678
0.371373
0.385551
0.400232
0.415441
0.431201
0.447538
0.464478
0.482049
0.500279
0.519198
0.538835
0.559221
0.580389
0.602369
0.625196
0.648901
0.673519
0.699084
0.725628
0.753186
0.781792
0.81148
0.842283
0.874234
0.907365
0.941708
0.977293
1.01415
1.05231
1.09179
1.13263
1.17484
1.21844
1.26346
1.30992
1.35782
1.40717
1.45799
1.51028
1.56403
1.61924
1.67591
1.73402
1.79354
1.85446
1.91673
1.98033
2.0452
2.11128
2.17852
2.24683
2.31614
2.38635
2.45737
2.52908
2.60136
2.67407
2.74709
2.82027
2.89344
2.96644
3.03912
3.11129
3.18278
3.25342
3.32303
3.39142
3.45844
3.5239
3.58766
3.64955
3.70943
3.76715
3.82259
3.87561
3.9261
3.97396
4.0191
4.06142
4.10086
4.13737
4.17089
4.20141
4.22891
4.2534
4.27489
4.29342
4.30901
4.32172
4.33158
4.33865
4.34295
4.3445
4.34331
4.33934
4.33256
4.32288
4.31022
4.29451
4.27543
4.25237
4.22559
4.19521
4.16128
4.12382
4.08284
4.03832
3.99022
3.93849
3.88306
3.8239
3.76107
3.6945
3.62409
3.54976
3.47139
3.38941
3.30382
3.21404
3.12058
3.02461
2.92556
2.8249
2.72301
2.62094
2.51943
2.41943
2.32168
2.22694
2.1358
2.04868
1.96463
1.88352
0.014546
0.0262022
0.0338919
0.0400395
0.045458
0.0504618
0.0552139
0.0598161
0.0643397
0.0688387
0.0733562
0.0779278
0.0825832
0.0873475
0.0922421
0.0972849
0.102491
0.107874
0.113443
0.119209
0.125177
0.131355
0.137747
0.144359
0.151193
0.158256
0.165549
0.173078
0.180847
0.188861
0.197124
0.205644
0.214427
0.22348
0.232812
0.242432
0.25235
0.262578
0.273127
0.284011
0.295243
0.306839
0.318815
0.331187
0.343974
0.357194
0.370869
0.38502
0.399668
0.414838
0.430554
0.446843
0.463732
0.481249
0.499424
0.518287
0.537871
0.558209
0.579333
0.601278
0.624081
0.647776
0.6724
0.697991
0.724585
0.752221
0.780936
0.810769
0.841757
0.873938
0.90735
0.942028
0.97801
1.01533
1.05402
1.09411
1.13564
1.17864
1.22312
1.26913
1.31667
1.36577
1.41646
1.46873
1.52261
1.5781
1.63521
1.69394
1.75427
1.8162
1.87972
1.94479
2.0114
2.0795
2.14905
2.22
2.29227
2.36581
2.44051
2.5163
2.59307
2.6707
2.74907
2.82803
2.90746
2.98717
3.06703
3.14684
3.22642
3.3056
3.38419
3.46197
3.53877
3.61438
3.6886
3.76126
3.83217
3.90115
3.96803
4.03264
4.09484
4.15446
4.21136
4.26542
4.31651
4.36451
4.40933
4.45087
4.48906
4.52384
4.55517
4.58303
4.60741
4.62831
4.64576
4.65979
4.67043
4.67772
4.68169
4.68235
4.67971
4.67373
4.66437
4.65152
4.63511
4.615
4.59063
4.56164
4.52829
4.49072
4.44899
4.40314
4.35318
4.29911
4.24091
4.17853
4.11189
4.04091
3.96572
3.88635
3.80272
3.71472
3.6217
3.52498
3.42464
3.32039
3.21303
3.10341
2.99182
2.87941
2.76684
2.65505
2.54481
2.43694
2.33215
2.2311
2.13427
2.04201
1.95344
1.86837
0.0152809
0.0276256
0.0355962
0.0419314
0.0475128
0.052669
0.0575663
0.0623071
0.0669632
0.071589
0.0762283
0.0809177
0.0856878
0.0905649
0.095571
0.100725
0.106042
0.111536
0.117218
0.123097
0.129181
0.135477
0.14199
0.148726
0.155689
0.162885
0.170317
0.17799
0.185909
0.19408
0.202507
0.211197
0.220157
0.229395
0.238919
0.248739
0.258865
0.269308
0.28008
0.291195
0.302666
0.31451
0.326742
0.339379
0.352441
0.365947
0.379917
0.394376
0.409345
0.424851
0.440918
0.457576
0.474854
0.49278
0.511389
0.530711
0.550783
0.571638
0.593314
0.615848
0.63928
0.663647
0.68899
0.715349
0.742767
0.771284
0.800942
0.831784
0.863851
0.897186
0.93183
0.967823
1.00521
1.04402
1.0843
1.12608
1.1694
1.21429
1.26078
1.3089
1.35868
1.41014
1.4633
1.51819
1.5748
1.63316
1.69327
1.75513
1.81875
1.88411
1.9512
2.02
2.09049
2.16263
2.23638
2.31168
2.38848
2.4667
2.54625
2.62703
2.70896
2.7919
2.87573
2.96031
3.04548
3.13108
3.21693
3.30286
3.38867
3.47417
3.55915
3.6434
3.72672
3.80887
3.88964
3.96884
4.04627
4.12173
4.19503
4.26599
4.33443
4.40017
4.46306
4.52292
4.57961
4.63299
4.68292
4.72927
4.77195
4.81086
4.84593
4.8771
4.90433
4.92762
4.94695
4.96235
4.97383
4.98142
4.98514
4.98502
4.98104
4.97317
4.96135
4.94547
4.92547
4.90111
4.8715
4.8367
4.7969
4.75223
4.70274
4.64849
4.5895
4.52577
4.4573
4.38405
4.30592
4.22257
4.13447
4.04172
3.94429
3.84215
3.73516
3.62426
3.50979
3.39198
3.27169
3.14971
3.02673
2.9037
2.78145
2.66083
2.54262
2.42759
2.31639
2.20962
2.1077
2.01093
1.91852
1.83024
0.0158235
0.0286969
0.0368472
0.0432848
0.0489526
0.0541911
0.0591686
0.063988
0.0687206
0.0734213
0.0781343
0.0828963
0.0877386
0.0926872
0.0977641
0.102988
0.108373
0.113934
0.11968
0.125622
0.131766
0.138121
0.144693
0.151487
0.158508
0.165762
0.173253
0.180988
0.18897
0.197206
0.205703
0.214465
0.223502
0.232821
0.24243
0.25234
0.26256
0.273104
0.283981
0.295208
0.306796
0.318764
0.331126
0.343901
0.357108
0.370767
0.384901
0.399532
0.414686
0.430388
0.446667
0.463552
0.481074
0.499265
0.518159
0.537792
0.558201
0.579423
0.601498
0.624467
0.648371
0.673253
0.699157
0.726127
0.754208
0.783445
0.813884
0.845572
0.878553
0.912875
0.948583
0.985721
1.02433
1.06447
1.10616
1.14945
1.19437
1.24097
1.28927
1.33931
1.39111
1.4447
1.50011
1.55735
1.61644
1.67739
1.74021
1.8049
1.87147
1.93991
2.0102
2.08234
2.15629
2.23202
2.3095
2.38868
2.46949
2.55186
2.63569
2.72088
2.80735
2.89496
2.98359
3.07309
3.16329
3.25404
3.34515
3.43643
3.52768
3.6187
3.70927
3.79919
3.88823
3.97612
4.06265
4.1476
4.23078
4.31197
4.39097
4.46758
4.5416
4.61284
4.68112
4.74625
4.80805
4.86636
4.92101
4.97184
5.01871
5.06149
5.10009
5.1344
5.16437
5.18995
5.21112
5.22787
5.2402
5.24813
5.25167
5.25082
5.24559
5.23592
5.22174
5.20295
5.17947
5.15082
5.11612
5.07563
5.02947
4.97775
4.92054
4.85787
4.78977
4.71625
4.63731
4.55293
4.46307
4.3676
4.26685
4.16095
4.05004
3.93432
3.81401
3.68984
3.56236
3.43216
3.30007
3.16694
3.03362
2.90102
2.77
2.6414
2.51602
2.39456
2.27766
2.16585
2.05952
1.95892
1.86337
1.77262
0.0161831
0.0294347
0.0376739
0.0441367
0.0498185
0.0550704
0.0600625
0.0648977
0.0696477
0.0743676
0.0791021
0.0838881
0.0887564
0.0937321
0.0988361
0.104085
0.109494
0.115074
0.120836
0.126788
0.132938
0.139293
0.145861
0.152646
0.159655
0.166894
0.174367
0.182081
0.190042
0.198256
0.206729
0.21547
0.224485
0.233784
0.243375
0.25327
0.263478
0.274012
0.284885
0.29611
0.307702
0.319678
0.332055
0.344851
0.358086
0.371782
0.38596
0.400647
0.415867
0.431649
0.448021
0.465017
0.482667
0.501008
0.520075
0.539906
0.560541
0.58202
0.604387
0.627685
0.651959
0.677256
0.703623
0.731107
0.759758
0.789625
0.820756
0.853203
0.887015
0.922241
0.958932
0.997136
1.0369
1.07827
1.12129
1.16601
1.21246
1.26068
1.3107
1.36255
1.41627
1.47187
1.52939
1.58884
1.65024
1.71359
1.77892
1.84622
1.91549
1.98673
2.05992
2.13506
2.21211
2.29104
2.37183
2.45442
2.53877
2.62478
2.71234
2.80136
2.89174
2.98337
3.0761
3.16979
3.26428
3.3594
3.45495
3.55073
3.64656
3.7422
3.83746
3.93211
4.02599
4.11872
4.21008
4.29987
4.38789
4.47393
4.55777
4.63919
4.718
4.79398
4.86694
4.93667
5.00296
5.06562
5.12446
5.17928
5.2299
5.27619
5.31798
5.35516
5.38763
5.41532
5.43818
5.45617
5.46927
5.47749
5.48081
5.47923
5.47275
5.46128
5.44473
5.42305
5.39604
5.36298
5.32331
5.27721
5.2248
5.16614
5.1013
5.03032
4.95322
4.87003
4.78077
4.68546
4.58416
4.47691
4.36398
4.24558
4.122
3.99364
3.86095
3.72462
3.58533
3.44388
3.30112
3.15796
3.01532
2.87413
2.73528
2.5996
2.46789
2.34084
2.21904
2.103
1.99305
1.88939
1.79146
1.699
0.0163722
0.0298619
0.03811
0.0445298
0.0501591
0.0553588
0.0603004
0.0650878
0.0697939
0.0744752
0.0791771
0.0839364
0.0887825
0.0937389
0.0988239
0.104053
0.109437
0.114988
0.120714
0.126623
0.132723
0.13902
0.145521
0.152233
0.159161
0.166311
0.173691
0.181306
0.189163
0.19727
0.205633
0.214261
0.223162
0.232347
0.241824
0.251605
0.261702
0.272127
0.282893
0.294016
0.305511
0.317395
0.329685
0.342403
0.355567
0.369202
0.38333
0.397978
0.413174
0.428947
0.445329
0.462354
0.480056
0.498474
0.517647
0.537615
0.558421
0.580109
0.602724
0.626316
0.650931
0.676621
0.703437
0.73143
0.760652
0.791156
0.822996
0.856225
0.890896
0.927062
0.964776
1.00409
1.04505
1.08771
1.13212
1.17831
1.22634
1.27624
1.32803
1.38173
1.43738
1.49501
1.55464
1.61627
1.67994
1.74564
1.81338
1.88316
1.95498
2.02883
2.1047
2.18256
2.26241
2.3442
2.42791
2.51348
2.60088
2.69008
2.78082
2.87307
2.96672
3.06167
3.15778
3.25489
3.35285
3.45147
3.55056
3.64992
3.74935
3.84863
3.94755
4.04587
4.14339
4.23982
4.33493
4.42851
4.52034
4.61021
4.6979
4.78319
4.86588
4.94573
5.02255
5.09609
5.16614
5.23247
5.29485
5.35308
5.40694
5.45624
5.50081
5.54049
5.57515
5.60468
5.629
5.64805
5.66177
5.67015
5.67316
5.67078
5.66296
5.64962
5.63067
5.60604
5.57539
5.53782
5.49318
5.44154
5.38295
5.31748
5.24517
5.16606
5.0802
4.98763
4.88842
4.78265
4.67045
4.55202
4.42763
4.29759
4.16233
4.02238
3.87835
3.73096
3.58103
3.42943
3.27709
3.12498
2.97407
2.82531
2.67962
2.53785
2.40078
2.26908
2.14332
2.02396
1.91128
1.80546
1.70601
1.61268
0.0164068
0.0300041
0.0381906
0.0445081
0.0500255
0.0551112
0.0599394
0.0646162
0.0692175
0.0738027
0.0784186
0.0831012
0.0878776
0.092768
0.0977877
0.102949
0.10826
0.113731
0.119369
0.125181
0.131173
0.137353
0.143726
0.150299
0.157079
0.164072
0.171286
0.178727
0.186404
0.194324
0.202495
0.210928
0.219632
0.228617
0.237894
0.247476
0.257374
0.267604
0.278179
0.289115
0.30043
0.312141
0.324268
0.336832
0.349855
0.363362
0.377377
0.391931
0.407051
0.422772
0.439127
0.456153
0.473889
0.492377
0.511658
0.53178
0.552785
0.574721
0.597639
0.62159
0.646629
0.672808
0.700184
0.728811
0.758746
0.790044
0.822762
0.856955
0.892681
0.929993
0.968945
1.00959
1.05198
1.09617
1.14219
1.1901
1.23993
1.29176
1.34555
1.40133
1.45911
1.51894
1.58082
1.64477
1.71079
1.77888
1.84906
1.9213
1.9956
2.07195
2.15033
2.23072
2.31309
2.39741
2.48364
2.57174
2.66164
2.75326
2.84649
2.94123
3.03738
3.13483
3.23343
3.33302
3.43345
3.53454
3.6361
3.73792
3.83981
3.94156
4.04295
4.14377
4.24377
4.34273
4.44042
4.53663
4.63115
4.72374
4.81421
4.90233
4.98788
5.07064
5.15038
5.22686
5.29982
5.36903
5.43424
5.49519
5.55165
5.60341
5.65024
5.69196
5.7284
5.75942
5.7849
5.80473
5.81885
5.82719
5.82972
5.82637
5.81707
5.80173
5.78026
5.75253
5.71794
5.67588
5.62627
5.56912
5.50447
5.43233
5.35275
5.2658
5.17152
5.06999
4.96134
4.8457
4.7233
4.59442
4.45939
4.31864
4.1727
4.0222
3.86787
3.71052
3.55104
3.39039
3.22957
3.06961
2.91152
2.75629
2.60486
2.45809
2.31673
2.18147
2.05282
1.93119
1.81684
1.70987
1.60987
1.51658
0.0163074
0.0298871
0.0379472
0.0441108
0.0494643
0.0543808
0.0590368
0.0635426
0.067981
0.0724169
0.0768986
0.0814596
0.0861225
0.0909026
0.095811
0.100856
0.106046
0.111385
0.116882
0.122541
0.128368
0.13437
0.140555
0.146927
0.153496
0.160267
0.167248
0.174447
0.181874
0.189537
0.197447
0.205613
0.214049
0.222764
0.231772
0.241086
0.25072
0.26069
0.271013
0.281706
0.292787
0.304278
0.3162
0.328575
0.34143
0.35479
0.368685
0.383145
0.398206
0.413902
0.430272
0.447358
0.465203
0.483854
0.503361
0.523779
0.54515
0.567523
0.590956
0.615506
0.641232
0.668191
0.696445
0.72605
0.757066
0.789551
0.823563
0.859159
0.896394
0.935324
0.975999
1.01847
1.06279
1.10899
1.15713
1.20723
1.25933
1.31345
1.36961
1.4278
1.48805
1.55037
1.61476
1.68123
1.74976
1.82036
1.89301
1.96769
2.04439
2.12308
2.20375
2.28636
2.37089
2.4573
2.54554
2.63556
2.72729
2.82066
2.91558
3.01193
3.10961
3.20852
3.30851
3.40941
3.51108
3.61335
3.71601
3.81891
3.92185
4.02464
4.1271
4.22902
4.3302
4.43042
4.52945
4.62708
4.72308
4.81725
4.90936
4.99919
5.08653
5.17115
5.25281
5.33125
5.40621
5.47742
5.54462
5.60753
5.66589
5.71944
5.76793
5.81114
5.84887
5.88093
5.90716
5.92743
5.94162
5.94965
5.95143
5.94687
5.93587
5.91832
5.89414
5.86301
5.82426
5.77764
5.72304
5.66044
5.58982
5.5112
5.42461
5.33013
5.22784
5.11784
5.00031
4.87546
4.74357
4.60501
4.4602
4.30966
4.154
3.99397
3.83038
3.66413
3.4962
3.32763
3.15948