/*--------------------------------*- C++ -*----------------------------------*\
| =========                 |                                                 |
| \\      /  F ield         | OpenFOAM: The Open Source CFD Toolbox           |
|  \\    /   O peration     | Version:  1.4.2                                 |
|   \\  /    A nd           | Web:      http://www.openfoam.org               |
|    \\/     M anipulation  |                                                 |
\*---------------------------------------------------------------------------*/
FoamFile
{
    version     2.0;
    format      ascii;
    class       volScalarField;
    object      p;
    location    "650";
}
// * * * * * * * * * * * * * * * * * * * * * * * * * * * * * * * * * * * * * //

dimensions      [0 2 -2 0 0 0 0];

internalField   nonuniform List<scalar> 
12225
(
-5.8355
-6.67307
-6.92233
-7.01988
-7.12559
-7.22927
-7.32082
-7.4039
-7.48249
-7.55833
-7.63251
-7.70616
-7.78059
-7.85747
-7.93925
-8.03001
-8.13663
-8.28585
-6.00183
-6.68022
-6.92031
-7.02147
-7.12621
-7.22818
-7.31854
-7.40069
-7.47839
-7.55338
-7.62672
-7.69954
-7.77312
-7.84909
-7.92974
-8.01876
-8.12237
-8.25649
-6.18087
-6.67617
-6.90953
-7.01916
-7.12407
-7.22461
-7.31428
-7.39609
-7.47345
-7.54803
-7.6209
-7.69314
-7.76592
-7.84067
-7.91922
-8.00402
-8.09731
-8.20074
-6.338
-6.69372
-6.91243
-7.02643
-7.12978
-7.22784
-7.31614
-7.3972
-7.47394
-7.54791
-7.62014
-7.69159
-7.76329
-7.83634
-7.91197
-7.99132
-8.07409
-8.15728
-6.4678
-6.72508
-6.92302
-7.03759
-7.13855
-7.23373
-7.32023
-7.40008
-7.47577
-7.54872
-7.61988
-7.69008
-7.76013
-7.83081
-7.90272
-7.97598
-8.04897
-8.11737
-6.58082
-6.76478
-6.93854
-7.05059
-7.14841
-7.2405
-7.32502
-7.40351
-7.47802
-7.54979
-7.61967
-7.68834
-7.7564
-7.82429
-7.89212
-7.95934
-8.02387
-8.0817
-6.68102
-6.81028
-6.95878
-7.06545
-7.1592
-7.24768
-7.32976
-7.40655
-7.47962
-7.55
-7.61837
-7.68525
-7.75102
-7.81583
-7.87944
-7.94097
-7.99841
-8.04858
-6.7571
-6.85204
-6.97971
-7.07982
-7.16933
-7.25427
-7.33383
-7.40876
-7.48027
-7.54914
-7.61593
-7.68101
-7.74459
-7.80663
-7.86673
-7.92392
-7.97647
-8.02188
-6.81803
-6.89003
-7.00025
-7.09396
-7.17927
-7.26076
-7.33781
-7.41083
-7.48067
-7.54797
-7.61312
-7.6764
-7.73787
-7.79737
-7.85443
-7.90812
-7.95702
-7.9991
-6.87802
-6.93151
-7.02437
-7.11062
-7.19097
-7.26844
-7.3425
-7.41317
-7.48098
-7.54634
-7.60952
-7.67064
-7.72968
-7.7864
-7.84029
-7.89054
-7.93607
-7.97528
-6.93623
-6.97548
-7.05197
-7.12976
-7.20444
-7.27735
-7.34789
-7.41575
-7.4811
-7.54414
-7.60499
-7.66365
-7.71999
-7.77374
-7.82442
-7.87138
-7.91383
-7.95061
-6.9918
-7.0206
-7.08246
-7.1512
-7.21962
-7.28746
-7.35396
-7.41853
-7.48098
-7.54131
-7.59948
-7.65537
-7.7088
-7.75947
-7.80699
-7.85085
-7.89053
-7.92523
-7.04391
-7.0653
-7.11476
-7.17437
-7.23616
-7.29856
-7.36059
-7.42139
-7.48053
-7.53778
-7.59293
-7.64581
-7.69617
-7.74374
-7.78819
-7.82919
-7.86639
-7.89928
-7.09154
-7.1078
-7.14728
-7.19827
-7.25336
-7.31016
-7.36741
-7.42411
-7.47959
-7.53344
-7.58534
-7.63503
-7.68225
-7.72676
-7.7683
-7.80667
-7.84167
-7.87297
-7.1333
-7.14605
-7.17789
-7.2213
-7.27002
-7.32133
-7.37377
-7.42621
-7.47785
-7.52813
-7.57665
-7.6231
-7.66722
-7.70878
-7.74763
-7.78362
-7.81663
-7.84651
-7.16716
-7.17758
-7.2039
-7.24119
-7.28435
-7.33068
-7.37859
-7.42692
-7.47478
-7.52154
-7.56675
-7.61006
-7.65123
-7.69007
-7.72646
-7.76032
-7.79158
-7.82016
-7.19011
-7.1991
-7.22187
-7.25487
-7.29382
-7.33615
-7.38029
-7.42506
-7.46957
-7.51315
-7.55536
-7.59585
-7.63439
-7.67083
-7.70507
-7.73708
-7.76682
-7.79426
-7.19711
-7.20558
-7.22705
-7.25822
-7.2951
-7.33523
-7.37709
-7.41955
-7.46175
-7.50307
-7.54308
-7.58146
-7.61802
-7.65264
-7.68525
-7.71583
-7.74436
-7.77085
-7.18757
-7.19649
-7.21894
-7.25093
-7.28812
-7.3281
-7.36946
-7.41114
-7.45237
-7.49257
-7.53137
-7.56854
-7.60391
-7.63739
-7.66896
-7.69861
-7.72634
-7.75217
-7.16548
-7.17584
-7.20143
-7.23647
-7.27584
-7.31724
-7.35944
-7.40149
-7.44272
-7.48266
-7.52103
-7.55765
-7.59241
-7.62528
-7.65625
-7.68534
-7.71257
-7.73796
-7.13335
-7.14652
-7.17767
-7.21774
-7.26068
-7.30456
-7.34848
-7.39164
-7.43348
-7.47369
-7.51208
-7.54857
-7.5831
-7.61566
-7.6463
-7.67505
-7.70196
-7.72703
-7.09238
-7.11048
-7.15016
-7.19701
-7.24442
-7.29145
-7.33762
-7.38228
-7.42506
-7.46582
-7.50449
-7.54108
-7.57558
-7.60804
-7.63851
-7.66706
-7.69373
-7.71855
-7.04278
-7.06931
-7.12117
-7.1761
-7.22838
-7.27888
-7.32753
-7.37383
-7.41765
-7.45906
-7.49813
-7.53493
-7.56953
-7.602
-7.63241
-7.66085
-7.68736
-7.71195
-6.98396
-7.02461
-7.0928
-7.15637
-7.21342
-7.26742
-7.31854
-7.36643
-7.41127
-7.45334
-7.49284
-7.52989
-7.56464
-7.59718
-7.62761
-7.65599
-7.68238
-7.70674
-6.91463
-6.97825
-7.06701
-7.13876
-7.20004
-7.25738
-7.31079
-7.36009
-7.40581
-7.44845
-7.48833
-7.52564
-7.56055
-7.59321
-7.62371
-7.65211
-7.67845
-7.70262
-6.83301
-6.93254
-7.04527
-7.12359
-7.18827
-7.24864
-7.30406
-7.35451
-7.40094
-7.44405
-7.48425
-7.52179
-7.55689
-7.5897
-7.62036
-7.64891
-7.67532
-7.69941
-6.73558
-6.89107
-7.02871
-7.11074
-7.17799
-7.24114
-7.29831
-7.34972
-7.39676
-7.44034
-7.48089
-7.51873
-7.5541
-7.58719
-7.61814
-7.64704
-7.67381
-7.69818
-6.6107
-6.85966
-7.01991
-7.10106
-7.16983
-7.23549
-7.29416
-7.34634
-7.3939
-7.43786
-7.47871
-7.51678
-7.55234
-7.58565
-7.61688
-7.64617
-7.67351
-7.69867
-6.44972
-6.84886
-7.02702
-7.1021
-7.1705
-7.23754
-7.29689
-7.34926
-7.39688
-7.44089
-7.48177
-7.51987
-7.55546
-7.58883
-7.62022
-7.64988
-7.67803
-7.70514
-6.28681
-6.8323
-7.02701
-7.0994
-7.16837
-7.23677
-7.29689
-7.34965
-7.39756
-7.44185
-7.48299
-7.52133
-7.55718
-7.59081
-7.62249
-7.65261
-7.68167
-7.71373
-8.36186
-8.36169
-8.36177
-8.3621
-8.36262
-8.36327
-8.36402
-8.36485
-8.36575
-8.36672
-8.36775
-8.36884
-8.37004
-8.37139
-8.37289
-8.37454
-8.37636
-8.37837
-8.38059
-8.38302
-8.38569
-8.38859
-8.39175
-8.39517
-8.39885
-8.40282
-8.40706
-8.4116
-8.41644
-8.42158
-8.42704
-8.43282
-8.43893
-8.44538
-8.45217
-8.45931
-8.4668
-8.47466
-8.48291
-8.49153
-8.50057
-8.51001
-8.51988
-8.53017
-8.54091
-8.55209
-8.56372
-8.57579
-8.58832
-8.60131
-8.61476
-8.62866
-8.64304
-8.65804
-8.67384
-8.69043
-8.70747
-8.72481
-8.74252
-8.76061
-8.77908
-8.79792
-8.81713
-8.83666
-8.85648
-8.87656
-8.89684
-8.91728
-8.93781
-8.95838
-8.97893
-8.99939
-9.01967
-9.03968
-9.05934
-9.07853
-9.09716
-9.11512
-9.13228
-9.14853
-9.16375
-9.17778
-9.1905
-9.20175
-9.21139
-9.21928
-9.22528
-9.22924
-9.23102
-9.23047
-9.22745
-9.22181
-9.21342
-9.20218
-9.188
-9.17079
-9.15048
-9.12702
-9.10036
-9.0705
-9.03745
-9.00128
-8.96204
-8.91983
-8.87477
-8.82701
-8.77672
-8.72412
-8.66944
-8.61294
-8.55489
-8.49556
-8.43525
-8.37427
-8.31296
-8.25164
-8.19063
-8.13023
-8.07074
-8.01243
-7.95553
-7.90027
-7.84684
-7.79537
-7.74595
-7.69859
-7.65323
-7.60975
-7.56796
-7.52757
-7.48817
-7.44922
-7.41007
-7.36996
-7.32796
-7.28301
-7.23387
-7.17911
-7.11719
-7.04639
-6.96488
-6.87063
-6.76147
-6.63513
-6.48934
-6.32186
-6.13029
-5.912
-5.66442
-5.38527
-5.07268
-4.72492
-4.34047
-3.9181
-3.45694
-2.95651
-2.41682
-1.83844
-1.22256
-0.57099
0.113849
0.82888
1.57037
2.33397
3.11485
3.90772
4.70691
5.50658
6.30076
7.08351
7.84902
8.59185
9.30701
9.99002
10.6367
11.2433
11.8075
12.3256
12.8107
13.223
-8.36173
-8.36162
-8.36168
-8.36196
-8.36236
-8.3628
-8.36327
-8.36376
-8.3643
-8.36489
-8.36554
-8.36627
-8.3671
-8.36805
-8.36914
-8.37039
-8.37182
-8.37343
-8.37525
-8.37729
-8.37956
-8.38207
-8.38482
-8.38783
-8.39111
-8.39466
-8.39848
-8.4026
-8.40701
-8.41173
-8.41675
-8.42209
-8.42776
-8.43376
-8.44009
-8.44678
-8.45381
-8.46122
-8.469
-8.47717
-8.48574
-8.49473
-8.50416
-8.51402
-8.52434
-8.53512
-8.54638
-8.55812
-8.57037
-8.58312
-8.5964
-8.61021
-8.62453
-8.63931
-8.65444
-8.66984
-8.68575
-8.70231
-8.71936
-8.73683
-8.75471
-8.77296
-8.79157
-8.81051
-8.82975
-8.84925
-8.86895
-8.88882
-8.90879
-8.92882
-8.94884
-8.96877
-8.98855
-9.00809
-9.02728
-9.04605
-9.06427
-9.08185
-9.09868
-9.11463
-9.12958
-9.14339
-9.15592
-9.16703
-9.17658
-9.18442
-9.19041
-9.19442
-9.1963
-9.19589
-9.19304
-9.18762
-9.17949
-9.16854
-9.15467
-9.1378
-9.11784
-9.09474
-9.06844
-9.03892
-9.0062
-8.97031
-8.93132
-8.8893
-8.84437
-8.79666
-8.74634
-8.69361
-8.63871
-8.58188
-8.52338
-8.46348
-8.40249
-8.34072
-8.2785
-8.21617
-8.15405
-8.09245
-8.03169
-7.97205
-7.91379
-7.85715
-7.80235
-7.74955
-7.69886
-7.65032
-7.60388
-7.55948
-7.51695
-7.47602
-7.43632
-7.39735
-7.35847
-7.31895
-7.27791
-7.23431
-7.18691
-7.13434
-7.07504
-7.00732
-6.92937
-6.83915
-6.7345
-6.61311
-6.47276
-6.31126
-6.12619
-5.91474
-5.67416
-5.40225
-5.09717
-4.75716
-4.38067
-3.96641
-3.51344
-3.02124
-2.48972
-1.91937
-1.3113
-0.667231
0.0105114
0.718922
1.45438
2.21258
2.98881
3.77783
4.57398
5.37149
6.16441
6.94683
7.71303
8.45756
9.17537
9.86185
10.5128
11.1245
11.6957
12.2221
12.72
13.1407
-8.36039
-8.36052
-8.36078
-8.36116
-8.36156
-8.36194
-8.3623
-8.36263
-8.36296
-8.36333
-8.36376
-8.36426
-8.36487
-8.3656
-8.36647
-8.3675
-8.3687
-8.37008
-8.37167
-8.37346
-8.37548
-8.37772
-8.3802
-8.38293
-8.38592
-8.38917
-8.3927
-8.3965
-8.4006
-8.405
-8.4097
-8.41472
-8.42006
-8.42574
-8.43174
-8.4381
-8.4448
-8.45187
-8.45932
-8.46715
-8.47539
-8.48404
-8.49311
-8.50262
-8.51258
-8.52299
-8.53387
-8.54521
-8.55703
-8.56934
-8.58216
-8.59548
-8.60933
-8.62369
-8.63851
-8.65373
-8.66939
-8.68553
-8.70212
-8.71912
-8.73651
-8.75429
-8.77242
-8.79088
-8.80964
-8.82866
-8.84788
-8.86728
-8.88678
-8.90634
-8.92589
-8.94537
-8.96471
-8.98381
-9.00258
-9.02094
-9.03877
-9.05598
-9.07244
-9.08806
-9.10269
-9.11622
-9.12849
-9.13937
-9.14871
-9.15637
-9.16223
-9.16612
-9.16791
-9.16745
-9.16458
-9.15916
-9.15107
-9.14017
-9.12638
-9.10959
-9.08974
-9.06673
-9.04052
-9.0111
-8.97845
-8.94262
-8.90366
-8.86164
-8.81666
-8.76884
-8.71837
-8.66543
-8.61026
-8.55309
-8.49417
-8.43379
-8.37224
-8.30985
-8.24695
-8.18388
-8.12097
-8.05855
-7.99695
-7.93645
-7.87735
-7.8199
-7.76433
-7.71082
-7.65951
-7.61046
-7.56365
-7.51904
-7.47647
-7.43572
-7.39641
-7.35807
-7.32011
-7.28179
-7.24226
-7.20049
-7.15527
-7.10522
-7.04881
-6.98435
-6.91003
-6.82382
-6.72352
-6.60681
-6.47153
-6.31556
-6.13639
-5.9309
-5.69636
-5.43075
-5.1322
-4.79892
-4.42932
-4.02206
-3.57617
-3.09106
-2.56659
-2.00318
-1.40184
-0.764236
-0.0926616
0.60996
1.34009
2.09349
2.86543
3.6508
4.44392
5.23904
6.03025
6.81162
7.5775
8.32231
9.04087
9.72841
10.3806
10.9949
11.5713
12.1047
12.6127
13.0318
-8.35797
-8.35844
-8.35907
-8.35967
-8.36018
-8.36061
-8.36096
-8.36126
-8.36155
-8.36185
-8.3622
-8.36262
-8.36314
-8.36377
-8.36455
-8.36547
-8.36657
-8.36785
-8.36932
-8.371
-8.37289
-8.37501
-8.37736
-8.37995
-8.3828
-8.38591
-8.38929
-8.39295
-8.3969
-8.40114
-8.4057
-8.41056
-8.41575
-8.42127
-8.42713
-8.43333
-8.43988
-8.4468
-8.45409
-8.46178
-8.46986
-8.47836
-8.48728
-8.49663
-8.50643
-8.51667
-8.52737
-8.53852
-8.55015
-8.56224
-8.57481
-8.58786
-8.6014
-8.61543
-8.62994
-8.64492
-8.66037
-8.67629
-8.69265
-8.70942
-8.7266
-8.74417
-8.7621
-8.78036
-8.79892
-8.81775
-8.83678
-8.85599
-8.87531
-8.89469
-8.91408
-8.93339
-8.95256
-8.9715
-8.99013
-9.00833
-9.02603
-9.0431
-9.05945
-9.07494
-9.08947
-9.10289
-9.11506
-9.12585
-9.13511
-9.14271
-9.14849
-9.15232
-9.15405
-9.15352
-9.15059
-9.14511
-9.13694
-9.12597
-9.1121
-9.09522
-9.07524
-9.0521
-9.02573
-8.99612
-8.96327
-8.9272
-8.88797
-8.84565
-8.80033
-8.75215
-8.70129
-8.64793
-8.59231
-8.53466
-8.47525
-8.41436
-8.35229
-8.28939
-8.22598
-8.16241
-8.09903
-8.03618
-7.97419
-7.91336
-7.85399
-7.79635
-7.74068
-7.68719
-7.636
-7.5872
-7.5408
-7.49674
-7.4549
-7.41504
-7.37682
-7.33977
-7.30332
-7.26673
-7.22915
-7.18956
-7.14675
-7.09936
-7.04584
-6.98452
-6.91354
-6.83088
-6.7343
-6.62149
-6.49035
-6.33879
-6.16403
-5.96271
-5.73231
-5.47103
-5.17691
-4.84812
-4.48303
-4.08029
-3.63887
-3.15815
-2.63795
-2.0786
-1.48108
-0.847025
-0.178721
0.520958
1.24856
1.9998
2.76993
3.55395
4.34613
5.14064
5.93168
6.71312
7.47928
8.22428
8.9429
9.63067
10.2838
10.9012
11.4823
12.0195
12.5311
12.9446
-8.35483
-8.3557
-8.3568
-8.35773
-8.35843
-8.35898
-8.35943
-8.35981
-8.36015
-8.36049
-8.36086
-8.36128
-8.36179
-8.36241
-8.36315
-8.36404
-8.36508
-8.36631
-8.36772
-8.36933
-8.37115
-8.37319
-8.37546
-8.37796
-8.38072
-8.38374
-8.38702
-8.39059
-8.39444
-8.39859
-8.40304
-8.40781
-8.4129
-8.41831
-8.42406
-8.43015
-8.4366
-8.44341
-8.45059
-8.45816
-8.46613
-8.47451
-8.48331
-8.49254
-8.5022
-8.51231
-8.52286
-8.53387
-8.54534
-8.55728
-8.56969
-8.58259
-8.59597
-8.60983
-8.62418
-8.63901
-8.65432
-8.67008
-8.68629
-8.70293
-8.71998
-8.73742
-8.75522
-8.77337
-8.79182
-8.81053
-8.82947
-8.84857
-8.8678
-8.88709
-8.90639
-8.92563
-8.94472
-8.96359
-8.98215
-9.0003
-9.01794
-9.03496
-9.05126
-9.06671
-9.0812
-9.09458
-9.10672
-9.11748
-9.12671
-9.13427
-9.14002
-9.1438
-9.14548
-9.1449
-9.14189
-9.13633
-9.12806
-9.11696
-9.10294
-9.08588
-9.06569
-9.04231
-9.01566
-8.98574
-8.95254
-8.91609
-8.87644
-8.83365
-8.78785
-8.73916
-8.68776
-8.63385
-8.57766
-8.51944
-8.45946
-8.398
-8.3354
-8.27199
-8.20811
-8.14413
-8.08039
-8.01725
-7.95505
-7.8941
-7.83472
-7.77718
-7.72174
-7.6686
-7.61791
-7.56976
-7.52417
-7.48109
-7.4404
-7.40187
-7.36518
-7.32987
-7.29535
-7.26091
-7.2257
-7.18867
-7.14866
-7.10427
-7.05395
-6.99602
-6.92861
-6.84966
-6.75691
-6.64806
-6.52108
-6.37383
-6.20307
-6.00541
-5.77874
-5.52127
-5.23098
-4.906
-4.54467
-4.1456
-3.70771
-3.23033
-2.71325
-2.15675
-1.56174
-0.929837
-0.263366
0.434838
1.16144
1.91208
2.68192
3.46613
4.25885
5.05412
5.84621
6.6286
7.39569
8.14135
8.86106
9.55119
10.2086
10.8305
11.4151
11.9546
12.4677
12.8757
-8.35143
-8.35265
-8.35423
-8.35549
-8.35643
-8.35717
-8.35778
-8.3583
-8.35877
-8.35921
-8.35967
-8.36017
-8.36073
-8.36139
-8.36216
-8.36305
-8.3641
-8.36532
-8.36672
-8.3683
-8.3701
-8.37211
-8.37434
-8.37682
-8.37954
-8.38252
-8.38576
-8.38929
-8.3931
-8.3972
-8.40161
-8.40633
-8.41136
-8.41673
-8.42242
-8.42846
-8.43485
-8.4416
-8.44873
-8.45624
-8.46414
-8.47245
-8.48118
-8.49033
-8.49992
-8.50994
-8.52041
-8.53133
-8.54272
-8.55457
-8.56689
-8.5797
-8.593
-8.60678
-8.62105
-8.6358
-8.65103
-8.66671
-8.68285
-8.69942
-8.7164
-8.73378
-8.75153
-8.76962
-8.78803
-8.8067
-8.8256
-8.84467
-8.86387
-8.88315
-8.90243
-8.92164
-8.94073
-8.95959
-8.97814
-8.99628
-9.01391
-9.03093
-9.04722
-9.06267
-9.07715
-9.09053
-9.10265
-9.11339
-9.12259
-9.13012
-9.13582
-9.13955
-9.14115
-9.14047
-9.13734
-9.13163
-9.12318
-9.11189
-9.09762
-9.08028
-9.05977
-9.03601
-9.00895
-8.97857
-8.94487
-8.90787
-8.86764
-8.82423
-8.77778
-8.72841
-8.67632
-8.62172
-8.56483
-8.50591
-8.44525
-8.38315
-8.31995
-8.25598
-8.19162
-8.12722
-8.06315
-7.99978
-7.93745
-7.87651
-7.81725
-7.75998
-7.70495
-7.65238
-7.60243
-7.55519
-7.51069
-7.46889
-7.42966
-7.3928
-7.35798
-7.32475
-7.29253
-7.26059
-7.22809
-7.19399
-7.15711
-7.11605
-7.06927
-7.01503
-6.95147
-6.87649
-6.78778
-6.68308
-6.56046
-6.41756
-6.2506
-6.05647
-5.83348
-5.5797
-5.29307
-4.97169
-4.61386
-4.21813
-3.78339
-3.30892
-2.79448
-2.24027
-1.64717
-1.01676
-0.351441
0.34598
1.07235
1.82321
2.59347
3.37862
4.17251
4.96893
5.76237
6.54581
7.31434
8.062
8.7853
9.48021
10.1417
10.7671
11.3547
11.8962
12.4104
12.8146
-8.34812
-8.34963
-8.35162
-8.35322
-8.35441
-8.35537
-8.35617
-8.35686
-8.35748
-8.35806
-8.35865
-8.35925
-8.35991
-8.36064
-8.36147
-8.36242
-8.36351
-8.36475
-8.36617
-8.36778
-8.36958
-8.3716
-8.37385
-8.37632
-8.37905
-8.38203
-8.38528
-8.3888
-8.39261
-8.39671
-8.40111
-8.40583
-8.41086
-8.41621
-8.4219
-8.42792
-8.4343
-8.44103
-8.44814
-8.45563
-8.46351
-8.4718
-8.4805
-8.48962
-8.49918
-8.50917
-8.51961
-8.53049
-8.54184
-8.55366
-8.56596
-8.57874
-8.59201
-8.60576
-8.62001
-8.63474
-8.64994
-8.6656
-8.68172
-8.69827
-8.71524
-8.73262
-8.75037
-8.76847
-8.78688
-8.80556
-8.82447
-8.84356
-8.86279
-8.88208
-8.90139
-8.92064
-8.93975
-8.95864
-8.97722
-8.99539
-9.01305
-9.0301
-9.04641
-9.06188
-9.07637
-9.08974
-9.10186
-9.11258
-9.12175
-9.12923
-9.13486
-9.1385
-9.13998
-9.13915
-9.13585
-9.12992
-9.12122
-9.10963
-9.09503
-9.0773
-9.05634
-9.03209
-9.00448
-8.9735
-8.93916
-8.90147
-8.86049
-8.81631
-8.76904
-8.71885
-8.66593
-8.61048
-8.55276
-8.49303
-8.43159
-8.36876
-8.30488
-8.24032
-8.17544
-8.11061
-8.04623
-7.98267
-7.92029
-7.85944
-7.80042
-7.74356
-7.68911
-7.6373
-7.58829
-7.54219
-7.49903
-7.45877
-7.4213
-7.3864
-7.35375
-7.32292
-7.2933
-7.26419
-7.23472
-7.20387
-7.17044
-7.13303
-7.09007
-7.03981
-6.98037
-6.9096
-6.82516
-6.72484
-6.60677
-6.46819
-6.30492
-6.11434
-5.89504
-5.64494
-5.36193
-5.04406
-4.6896
-4.29706
-3.86524
-3.39344
-2.88136
-2.32911
-1.73754
-1.1082
-0.443613
0.253441
0.980099
1.73165
2.50266
3.28906
4.08431
4.88181
5.67691
6.46217
7.23373
7.98604
8.71321
9.41175
10.0768
10.7054
11.2957
11.8393
12.3545
12.7563
-8.34521
-8.34696
-8.34927
-8.35116
-8.35258
-8.35373
-8.35471
-8.35557
-8.35634
-8.35707
-8.35778
-8.3585
-8.35926
-8.36009
-8.361
-8.36202
-8.36318
-8.36448
-8.36595
-8.36761
-8.36946
-8.37152
-8.3738
-8.37632
-8.37908
-8.3821
-8.38538
-8.38893
-8.39277
-8.39691
-8.40134
-8.40608
-8.41113
-8.41651
-8.42222
-8.42827
-8.43466
-8.44141
-8.44854
-8.45604
-8.46394
-8.47224
-8.48095
-8.49009
-8.49965
-8.50965
-8.5201
-8.53099
-8.54235
-8.55419
-8.5665
-8.5793
-8.59258
-8.60636
-8.62063
-8.63538
-8.6506
-8.66629
-8.68243
-8.69901
-8.71602
-8.73343
-8.75122
-8.76936
-8.78781
-8.80654
-8.82551
-8.84465
-8.86393
-8.88329
-8.90266
-8.92196
-8.94113
-8.96008
-8.97871
-8.99693
-9.01464
-9.03172
-9.04807
-9.06356
-9.07805
-9.09142
-9.10352
-9.11421
-9.12333
-9.13073
-9.13626
-9.13977
-9.14108
-9.14005
-9.1365
-9.13029
-9.12126
-9.10929
-9.09424
-9.07601
-9.0545
-9.02962
-9.00134
-8.96962
-8.93449
-8.89595
-8.85408
-8.80897
-8.76075
-8.70959
-8.65569
-8.59927
-8.5406
-8.47995
-8.41764
-8.354
-8.28939
-8.22419
-8.15877
-8.09353
-8.02887
-7.96517
-7.9028
-7.84213
-7.78348
-7.72716
-7.67345
-7.62259
-7.57474
-7.53
-7.48842
-7.44996
-7.4145
-7.38184
-7.35165
-7.3235
-7.29678
-7.27078
-7.24464
-7.21731
-7.18761
-7.15411
-7.11521
-7.06917
-7.01407
-6.94772
-6.86772
-6.772
-6.65864
-6.52423
-6.36459
-6.17767
-5.9621
-5.71568
-5.43628
-5.1219
-4.77075
-4.38129
-3.95228
-3.48298
-2.9731
-2.42259
-1.83226
-1.2037
-0.539613
0.1573
0.884554
1.63699
2.40867
3.19639
3.9933
4.79223
5.59014
6.37958
7.15453
7.91039
8.64121
9.34316
10.0117
10.6433
11.236
11.7815
12.2975
12.6982
-8.34299
-8.34487
-8.34741
-8.34949
-8.35108
-8.35239
-8.35351
-8.35451
-8.35541
-8.35625
-8.35708
-8.3579
-8.35876
-8.35968
-8.36068
-8.36179
-8.36302
-8.3644
-8.36594
-8.36767
-8.36959
-8.37172
-8.37407
-8.37665
-8.37947
-8.38255
-8.38589
-8.38951
-8.3934
-8.39759
-8.40208
-8.40687
-8.41198
-8.41741
-8.42316
-8.42926
-8.4357
-8.4425
-8.44967
-8.45722
-8.46517
-8.47351
-8.48227
-8.49145
-8.50105
-8.5111
-8.52158
-8.53253
-8.54394
-8.55582
-8.56818
-8.58104
-8.59438
-8.60821
-8.62254
-8.63734
-8.65263
-8.66838
-8.68458
-8.70123
-8.7183
-8.73578
-8.75365
-8.77186
-8.79039
-8.8092
-8.82824
-8.84747
-8.86683
-8.88626
-8.90571
-8.92509
-8.94434
-8.96335
-8.98205
-9.00033
-9.01809
-9.03521
-9.05158
-9.06708
-9.08158
-9.09493
-9.10699
-9.11761
-9.12665
-9.13393
-9.13932
-9.14264
-9.14374
-9.14243
-9.13857
-9.13199
-9.12254
-9.11009
-9.0945
-9.07566
-9.05347
-9.02785
-8.99875
-8.96616
-8.93009
-8.89056
-8.84765
-8.80146
-8.75215
-8.69988
-8.64487
-8.58736
-8.52763
-8.46596
-8.4027
-8.33819
-8.27282
-8.20695
-8.141
-8.07536
-8.01046
-7.94669
-7.88443
-7.82405
-7.7659
-7.71028
-7.6575
-7.60777
-7.56128
-7.51814
-7.47837
-7.44195
-7.40876
-7.3786
-7.35113
-7.32591
-7.30235
-7.27971
-7.25714
-7.23357
-7.2078
-7.17841
-7.14376
-7.10212
-7.05152
-6.9897
-6.91429
-6.82334
-6.71476
-6.5843
-6.42818
-6.24502
-6.0332
-5.79048
-5.51467
-5.20374
-4.85585
-4.4694
-4.0431
-3.57624
-3.06846
-2.51948
-1.93016
-1.30225
-0.638633
0.0581357
0.786054
1.53942
2.31171
3.1007
3.90047
4.70255
5.50308
6.29577
7.07416
7.83334
8.56768
9.27288
9.94454
10.5789
11.1737
11.721
12.2375
12.6382
-8.34153
-8.34346
-8.3461
-8.3483
-8.34999
-8.35139
-8.35261
-8.3537
-8.35469
-8.35562
-8.35653
-8.35743
-8.35837
-8.35936
-8.36044
-8.36163
-8.36295
-8.36441
-8.36604
-8.36786
-8.36986
-8.37208
-8.37451
-8.37717
-8.38008
-8.38324
-8.38666
-8.39035
-8.39432
-8.39859
-8.40315
-8.40802
-8.4132
-8.4187
-8.42452
-8.43069
-8.4372
-8.44407
-8.45131
-8.45893
-8.46695
-8.47536
-8.48419
-8.49344
-8.50312
-8.51323
-8.52379
-8.53482
-8.5463
-8.55827
-8.57072
-8.58365
-8.59709
-8.61101
-8.62542
-8.64032
-8.65569
-8.67154
-8.68783
-8.70458
-8.72175
-8.73933
-8.75729
-8.77561
-8.79424
-8.81315
-8.83229
-8.85161
-8.87107
-8.8906
-8.91014
-8.92961
-8.94893
-8.96803
-8.98679
-9.00512
-9.02292
-9.04008
-9.05647
-9.07196
-9.08643
-9.09974
-9.11173
-9.12225
-9.13115
-9.13828
-9.14346
-9.14654
-9.14734
-9.14569
-9.14143
-9.1344
-9.12444
-9.1114
-9.09515
-9.07558
-9.05258
-9.02608
-8.99604
-8.96243
-8.92527
-8.88461
-8.84052
-8.79311
-8.74256
-8.68905
-8.63281
-8.5741
-8.5132
-8.45044
-8.38617
-8.32075
-8.25458
-8.18805
-8.12158
-8.05559
-7.99052
-7.92677
-7.86473
-7.80478
-7.74728
-7.69254
-7.64087
-7.59249
-7.54759
-7.50627
-7.46856
-7.43443
-7.40376
-7.37632
-7.3518
-7.32972
-7.30951
-7.29044
-7.27161
-7.25197
-7.23029
-7.20512
-7.17485
-7.13769
-7.09167
-7.03443
-6.96367
-6.87761
-6.77369
-6.64693
-6.49425
-6.31486
-6.10677
-5.86769
-5.59541
-5.28785
-4.94312
-4.55959
-4.13591
-3.67142
-3.1657
-2.61811
-2.02968
-1.40244
-0.739398
-0.0431085
0.685045
1.43977
2.21403
3.00454
3.80623
4.61128
5.41463
6.21028
6.99194
7.75425
8.4918
9.19996
9.87437
10.5111
11.1077
11.6566
12.173
12.5748
-8.34082
-8.34272
-8.34536
-8.34758
-8.34931
-8.35075
-8.35202
-8.35315
-8.35419
-8.35516
-8.35611
-8.35706
-8.35805
-8.3591
-8.36024
-8.3615
-8.36289
-8.36444
-8.36616
-8.36806
-8.37016
-8.37247
-8.375
-8.37776
-8.38076
-8.38401
-8.38753
-8.39131
-8.39538
-8.39973
-8.40439
-8.40934
-8.41461
-8.4202
-8.42611
-8.43236
-8.43896
-8.44592
-8.45325
-8.46096
-8.46907
-8.47757
-8.48649
-8.49583
-8.5056
-8.51582
-8.52648
-8.5376
-8.5492
-8.56127
-8.57383
-8.58688
-8.60043
-8.61447
-8.629
-8.64401
-8.6595
-8.67547
-8.69189
-8.70875
-8.72605
-8.74375
-8.76184
-8.78027
-8.79902
-8.81804
-8.8373
-8.85673
-8.8763
-8.89593
-8.91556
-8.93512
-8.95453
-8.97369
-8.99251
-9.01089
-9.02872
-9.04588
-9.06226
-9.07772
-9.09213
-9.10535
-9.11722
-9.12759
-9.13631
-9.14321
-9.14812
-9.15088
-9.1513
-9.14923
-9.14448
-9.13688
-9.12629
-9.11256
-9.09553
-9.0751
-9.05117
-9.02365
-8.99251
-8.95773
-8.91934
-8.87739
-8.83196
-8.7832
-8.73128
-8.6764
-8.61881
-8.55879
-8.49664
-8.43271
-8.36738
-8.30104
-8.23408
-8.1669
-8.09996
-8.03369
-7.96854
-7.90493
-7.84326
-7.7839
-7.72723
-7.67358
-7.62324
-7.57644
-7.53336
-7.49409
-7.45866
-7.42703
-7.39907
-7.37457
-7.35317
-7.33442
-7.31772
-7.30235
-7.28739
-7.27178
-7.25427
-7.23341
-7.20755
-7.17492
-7.13346
-7.08076
-7.01468
-6.93353
-6.83388
-6.71054
-6.5613
-6.38557
-6.18111
-5.94558
-5.67671
-5.37238
-5.03067
-4.6499
-4.22876
-3.76661
-3.26313
-2.71744
-2.13019
-1.50373
-0.840758
-0.144191
0.583903
1.33926
2.11538
2.90782
3.71133
4.519
5.32502
6.12338
6.90793
7.67304
8.41333
9.12401
9.80069
10.4393
11.0372
11.5873
12.1034
12.507
-8.34081
-8.3426
-8.34513
-8.34731
-8.34901
-8.35044
-8.3517
-8.35283
-8.35386
-8.35484
-8.35579
-8.35675
-8.35776
-8.35885
-8.36003
-8.36134
-8.3628
-8.36443
-8.36623
-8.36822
-8.37041
-8.37281
-8.37544
-8.3783
-8.38141
-8.38476
-8.38838
-8.39227
-8.39644
-8.40089
-8.40565
-8.4107
-8.41607
-8.42175
-8.42777
-8.43412
-8.44082
-8.44788
-8.45531
-8.46313
-8.47133
-8.47995
-8.48897
-8.49843
-8.50831
-8.51864
-8.52942
-8.54067
-8.55239
-8.56459
-8.57729
-8.59047
-8.60415
-8.61833
-8.633
-8.64816
-8.66379
-8.6799
-8.69646
-8.71347
-8.73091
-8.74875
-8.76697
-8.78554
-8.80441
-8.82356
-8.84294
-8.86248
-8.88215
-8.90189
-8.92161
-8.94125
-8.96072
-8.97993
-8.99879
-9.01719
-9.03501
-9.05215
-9.06847
-9.08385
-9.09815
-9.11122
-9.12291
-9.13307
-9.14152
-9.14811
-9.15267
-9.15501
-9.15496
-9.15235
-9.14699
-9.13873
-9.12738
-9.11281
-9.09488
-9.07345
-9.04843
-9.01974
-8.98734
-8.95124
-8.91146
-8.86807
-8.82117
-8.7709
-8.71748
-8.66111
-8.60206
-8.54063
-8.47715
-8.41201
-8.3456
-8.27834
-8.2106
-8.14282
-8.07548
-8.00904
-7.94394
-7.88062
-7.81949
-7.76093
-7.70532
-7.65298
-7.6042
-7.55921
-7.51816
-7.48114
-7.44819
-7.41925
-7.3942
-7.37279
-7.35469
-7.33941
-7.32637
-7.31481
-7.30381
-7.2923
-7.27901
-7.26246
-7.24101
-7.21286
-7.17585
-7.1276
-7.0662
-6.98982
-6.89383
-6.7736
-6.62795
-6.45586
-6.25501
-6.02302
-5.75757
-5.4565
-5.11785
-4.73991
-4.3213
-3.86128
-3.35961
-2.81586
-2.23019
-1.60469
-0.941878
-0.244779
0.483796
1.23974
2.01735
2.81157
3.61683
4.42667
5.23501
6.03569
6.82261
7.59002
8.33248
9.0451
9.72344
10.3634
10.9621
11.5129
12.0282
12.4342
-8.34136
-8.343
-8.34535
-8.34741
-8.34903
-8.3504
-8.35161
-8.35269
-8.35368
-8.35461
-8.35553
-8.35647
-8.35747
-8.35856
-8.35977
-8.36112
-8.36263
-8.36431
-8.36619
-8.36826
-8.37053
-8.37303
-8.37576
-8.37872
-8.38193
-8.38539
-8.38911
-8.39311
-8.39739
-8.40195
-8.40681
-8.41197
-8.41745
-8.42324
-8.42936
-8.43582
-8.44263
-8.4498
-8.45735
-8.46527
-8.4736
-8.48233
-8.49147
-8.50105
-8.51106
-8.52152
-8.53244
-8.54382
-8.55569
-8.56803
-8.58088
-8.59421
-8.60805
-8.62238
-8.63721
-8.65252
-8.66831
-8.68457
-8.70129
-8.71845
-8.73604
-8.75403
-8.77239
-8.79109
-8.81009
-8.82936
-8.84884
-8.86849
-8.88825
-8.90806
-8.92785
-8.94754
-8.96704
-8.98627
-9.00511
-9.02348
-9.04125
-9.0583
-9.0745
-9.08973
-9.10384
-9.11668
-9.1281
-9.13794
-9.14603
-9.1522
-9.15629
-9.1581
-9.15745
-9.15418
-9.14808
-9.139
-9.12676
-9.11121
-9.09221
-9.06964
-9.04338
-9.01336
-8.97955
-8.94197
-8.90064
-8.85566
-8.80713
-8.75524
-8.70019
-8.64222
-8.58161
-8.51869
-8.45381
-8.38741
-8.3199
-8.25171
-8.18321
-8.11485
-8.04717
-7.98063
-7.91571
-7.85283
-7.79242
-7.73486
-7.68052
-7.62971
-7.58271
-7.53973
-7.50092
-7.46637
-7.43611
-7.41009
-7.38816
-7.37007
-7.35547
-7.34388
-7.33467
-7.32709
-7.32021
-7.31292
-7.30393
-7.29177
-7.27478
-7.2511
-7.21848
-7.17469
-7.11809
-7.04615
-6.95323
-6.83589
-6.69389
-6.52543
-6.32814
-6.09963
-5.83754
-5.53967
-5.20402
-4.82884
-4.41272
-3.95475
-3.4546
-2.91215
-2.3277
-1.703
-1.04043
-0.342953
0.386182
1.14277
1.92152
2.71718
3.52392
4.33547
5.14561
5.94808
6.73675
7.5058
8.24975
8.9636
9.6429
10.2835
10.8824
11.4335
11.9476
12.3563
-8.34236
-8.34382
-8.34594
-8.34783
-8.34934
-8.3506
-8.35171
-8.35269
-8.35358
-8.35443
-8.35527
-8.35616
-8.35712
-8.3582
-8.35941
-8.36078
-8.36233
-8.36406
-8.36599
-8.36813
-8.37048
-8.37307
-8.37588
-8.37894
-8.38225
-8.38582
-8.38966
-8.39376
-8.39815
-8.40283
-8.4078
-8.41307
-8.41866
-8.42456
-8.4308
-8.43737
-8.44429
-8.45158
-8.45924
-8.46729
-8.47573
-8.48458
-8.49386
-8.50356
-8.51371
-8.52431
-8.53537
-8.5469
-8.55891
-8.57141
-8.58441
-8.59791
-8.61191
-8.6264
-8.64139
-8.65686
-8.67281
-8.68923
-8.7061
-8.72341
-8.74114
-8.75926
-8.77774
-8.79655
-8.81566
-8.83502
-8.85457
-8.87428
-8.89409
-8.91392
-8.93371
-8.95339
-8.97285
-8.99201
-9.01077
-9.02902
-9.04664
-9.0635
-9.07948
-9.09444
-9.10825
-9.12074
-9.13177
-9.14116
-9.14876
-9.15438
-9.15785
-9.15899
-9.1576
-9.15351
-9.14653
-9.13648
-9.12319
-9.1065
-9.08628
-9.06242
-9.03478
-9.00327
-8.96789
-8.92867
-8.88564
-8.8389
-8.78859
-8.73489
-8.67807
-8.61835
-8.55603
-8.49145
-8.42502
-8.3572
-8.28844
-8.2192
-8.14989
-8.08101
-8.01306
-7.94654
-7.88194
-7.8197
-7.76025
-7.70393
-7.65111
-7.60209
-7.55712
-7.51642
-7.48013
-7.44835
-7.42109
-7.39828
-7.37977
-7.3653
-7.35449
-7.34686
-7.34177
-7.33842
-7.33586
-7.33299
-7.32849
-7.32087
-7.30844
-7.28925
-7.26105
-7.22191
-7.17015
-7.10192
-7.01157
-6.89723
-6.75869
-6.59368
-6.39976
-6.17448
-5.91547
-5.62049
-5.28752
-4.91476
-4.5008
-4.04465
-3.54588
-3.00447
-2.42093
-1.79684
-1.1345
-0.436822
0.292754
1.04989
1.82948
2.62614
3.43396
4.24667
5.05799
5.86157
6.65127
7.42118
8.16581
8.88011
9.55957
10.2001
10.7985
11.3493
11.8617
12.2733
-8.3437
-8.34497
-8.34685
-8.34855
-8.3499
-8.35101
-8.35197
-8.3528
-8.35355
-8.35426
-8.35499
-8.35579
-8.3567
-8.35773
-8.35893
-8.3603
-8.36186
-8.36362
-8.36559
-8.36778
-8.3702
-8.37286
-8.37576
-8.37892
-8.38233
-8.386
-8.38994
-8.39416
-8.39867
-8.40346
-8.40854
-8.41393
-8.41963
-8.42565
-8.432
-8.43868
-8.44572
-8.45312
-8.4609
-8.46907
-8.47763
-8.48661
-8.49601
-8.50584
-8.51612
-8.52686
-8.53806
-8.54974
-8.5619
-8.57455
-8.5877
-8.60135
-8.6155
-8.63014
-8.64527
-8.66089
-8.67698
-8.69352
-8.71051
-8.72793
-8.74576
-8.76396
-8.78251
-8.80137
-8.82051
-8.83988
-8.85943
-8.8791
-8.89885
-8.9186
-8.93829
-8.95783
-8.97713
-8.9961
-9.01463
-9.03263
-9.04997
-9.06651
-9.08212
-9.09667
-9.11003
-9.12202
-9.13251
-9.14131
-9.14826
-9.15318
-9.15589
-9.15619
-9.15392
-9.14886
-9.14083
-9.12965
-9.11514
-9.09714
-9.0755
-9.05011
-9.02088
-8.98771
-8.95059
-8.90954
-8.86464
-8.81599
-8.7637
-8.70799
-8.64918
-8.58752
-8.52328
-8.45685
-8.38869
-8.31929
-8.24916
-8.17878
-8.10865
-8.03927
-7.97115
-7.90481
-7.84074
-7.7794
-7.72119
-7.66643
-7.61545
-7.56857
-7.526
-7.48796
-7.45457
-7.42593
-7.40204
-7.38281
-7.36808
-7.35757
-7.3509
-7.34753
-7.34683
-7.34796
-7.34997
-7.3517
-7.35184
-7.34887
-7.34103
-7.3263
-7.30259
-7.26824
-7.22091
-7.1553
-7.06717
-6.95598
-6.82073
-6.65895
-6.46813
-6.2458
-5.98954
-5.69711
-5.36644
-4.99575
-4.58359
-4.12896
-3.63138
-3.09085
-2.508
-1.88437
-1.22224
-0.524492
0.205317
0.962786
1.74284
2.54003
3.34837
4.1616
4.97336
5.77727
6.56714
7.33705
8.08146
8.79531
9.47408
10.1137
10.711
11.2608
11.7711
12.1856
-8.34531
-8.34643
-8.3481
-8.34959
-8.35074
-8.35165
-8.35239
-8.35301
-8.35355
-8.35408
-8.35466
-8.35534
-8.35616
-8.35713
-8.35828
-8.35962
-8.36117
-8.36293
-8.36493
-8.36715
-8.36963
-8.37235
-8.37533
-8.37857
-8.38208
-8.38587
-8.38992
-8.39426
-8.39888
-8.40379
-8.40899
-8.41449
-8.42031
-8.42644
-8.4329
-8.4397
-8.44685
-8.45436
-8.46225
-8.47052
-8.4792
-8.48829
-8.4978
-8.50775
-8.51815
-8.52901
-8.54033
-8.55213
-8.56442
-8.57719
-8.59045
-8.60421
-8.61846
-8.63321
-8.64843
-8.66413
-8.68028
-8.69688
-8.71391
-8.73134
-8.74916
-8.76733
-8.78583
-8.80461
-8.82365