/*--------------------------------*- C++ -*----------------------------------*\
| =========                 |                                                 |
| \\      /  F ield         | OpenFOAM: The Open Source CFD Toolbox           |
|  \\    /   O peration     | Version:  1.4.2                                 |
|   \\  /    A nd           | Web:      http://www.openfoam.org               |
|    \\/     M anipulation  |                                                 |
\*---------------------------------------------------------------------------*/
FoamFile
{
    version     2.0;
    format      ascii;
    class       surfaceScalarField;
    object      phi;
    location    "650";
}
// * * * * * * * * * * * * * * * * * * * * * * * * * * * * * * * * * * * * * //

dimensions      [0 3 -1 0 0 0 0];

internalField   nonuniform List<scalar> 
24170
(
3.03918e-06
9.47092e-08
2.96659e-06
7.25907e-08
2.90197e-06
6.46206e-08
2.84074e-06
6.12329e-08
2.78297e-06
5.77679e-08
2.72889e-06
5.40695e-08
2.67845e-06
5.04469e-08
2.63147e-06
4.69792e-08
2.58781e-06
4.36598e-08
2.54733e-06
4.0481e-08
2.50989e-06
3.7438e-08
2.47537e-06
3.452e-08
2.44367e-06
3.17056e-08
2.41472e-06
2.89553e-08
2.38852e-06
2.61913e-08
2.36529e-06
2.32348e-08
2.34555e-06
1.97355e-08
9.53903e-09
2.33602e-06
3.46199e-06
8.91588e-08
3.45386e-06
8.07192e-08
3.44442e-06
7.40648e-08
3.43379e-06
7.18601e-08
3.42223e-06
6.9319e-08
3.41015e-06
6.61464e-08
3.39778e-06
6.28235e-08
3.38525e-06
5.9511e-08
3.37269e-06
5.62224e-08
3.36021e-06
5.29606e-08
3.34792e-06
4.97275e-08
3.33593e-06
4.65115e-08
3.32436e-06
4.32786e-08
3.31336e-06
3.99577e-08
3.30315e-06
3.64012e-08
3.2941e-06
3.22819e-08
3.28707e-06
2.67685e-08
1.72034e-08
3.27941e-06
3.82433e-06
7.70239e-08
3.8263e-06
7.87435e-08
3.8256e-06
7.47625e-08
3.82405e-06
7.34098e-08
3.82187e-06
7.14944e-08
3.81925e-06
6.87737e-08
3.81632e-06
6.57532e-08
3.81318e-06
6.26446e-08
3.80992e-06
5.94907e-08
3.80657e-06
5.63061e-08
3.80321e-06
5.30953e-08
3.79988e-06
4.98426e-08
3.79666e-06
4.65028e-08
3.79363e-06
4.29851e-08
3.79091e-06
3.91177e-08
3.78862e-06
3.45753e-08
3.78662e-06
2.87633e-08
2.06372e-08
3.78319e-06
4.2169e-06
6.46843e-08
4.22212e-06
7.35198e-08
4.2243e-06
7.25825e-08
4.22556e-06
7.2151e-08
4.22627e-06
7.07794e-08
4.22658e-06
6.84665e-08
4.22661e-06
6.57186e-08
4.22648e-06
6.2781e-08
4.22624e-06
5.97299e-08
4.22595e-06
5.65964e-08
4.22566e-06
5.33912e-08
4.2254e-06
5.00996e-08
4.22523e-06
4.66747e-08
4.22519e-06
4.30254e-08
4.22531e-06
3.89953e-08
4.22555e-06
3.4333e-08
4.22561e-06
2.8707e-08
2.18316e-08
4.22442e-06
4.6487e-06
5.32942e-08
4.65544e-06
6.67707e-08
4.65932e-06
6.87108e-08
4.66212e-06
6.93498e-08
4.66432e-06
6.8578e-08
4.66609e-06
6.66923e-08
4.66757e-06
6.4235e-08
4.66887e-06
6.14851e-08
4.67005e-06
5.85513e-08
4.67116e-06
5.54831e-08
4.67226e-06
5.23004e-08
4.67336e-06
4.89942e-08
4.67451e-06
4.55238e-08
4.67573e-06
4.18118e-08
4.67699e-06
3.77371e-08
4.67818e-06
3.31369e-08
4.67902e-06
2.78717e-08
2.19947e-08
4.67886e-06
5.12456e-06
4.33331e-08
5.132e-06
5.93269e-08
5.13708e-06
6.36335e-08
5.14108e-06
6.53454e-08
5.1444e-06
6.52557e-08
5.14723e-06
6.38643e-08
5.14972e-06
6.17477e-08
5.15198e-06
5.92243e-08
5.15409e-06
5.64401e-08
5.1561e-06
5.3468e-08
5.15806e-06
5.03412e-08
5.16e-06
4.70607e-08
5.16192e-06
4.35983e-08
5.16384e-06
3.98982e-08
5.16569e-06
3.58814e-08
5.16737e-06
3.14633e-08
5.16862e-06
2.66236e-08
2.15408e-08
5.16907e-06
5.64939e-06
3.49528e-08
5.65697e-06
5.17438e-08
5.66284e-06
5.77632e-08
5.66778e-06
6.04004e-08
5.67206e-06
6.09795e-08
5.67581e-06
6.01138e-08
5.67917e-06
5.83861e-08
5.68225e-06
5.61413e-08
5.68514e-06
5.35557e-08
5.68788e-06
5.0725e-08
5.69053e-06
4.76988e-08
5.69309e-06
4.44931e-08
5.69559e-06
4.10975e-08
5.69801e-06
3.74822e-08
5.70028e-06
3.36093e-08
5.70229e-06
2.94542e-08
5.70386e-06
2.50613e-08
2.06321e-08
5.70476e-06
4.4112e-06
2.98596e-08
4.41651e-06
4.64377e-08
4.42103e-06
5.32437e-08
4.42498e-06
5.64484e-08
4.42851e-06
5.74525e-08
4.43168e-06
5.69417e-08
4.43457e-06
5.54976e-08
4.43724e-06
5.34707e-08
4.43974e-06
5.10517e-08
4.44212e-06
4.83499e-08
4.44439e-06
4.54263e-08
4.44658e-06
4.23078e-08
4.44868e-06
3.8998e-08
4.45067e-06
3.54861e-08
4.45252e-06
3.176e-08
4.45415e-06
2.7827e-08
4.45545e-06
2.37557e-08
1.97368e-08
4.45635e-06
5.1446e-06
2.51193e-08
5.15008e-06
4.09572e-08
5.15507e-06
4.82459e-08
5.15964e-06
5.18879e-08
5.16381e-06
5.32756e-08
5.16764e-06
5.31119e-08
5.17118e-06
5.1961e-08
5.17448e-06
5.01726e-08
5.17758e-06
4.79475e-08
5.18052e-06
4.5406e-08
5.18333e-06
4.26195e-08
5.18601e-06
3.96268e-08
5.18856e-06
3.64458e-08
5.19097e-06
3.30845e-08
5.19317e-06
2.95538e-08
5.19511e-06
2.58849e-08
5.19671e-06
2.21573e-08
1.85434e-08
5.19791e-06
6.0001e-06
2.08091e-08
6.00562e-06
3.54354e-08
6.01099e-06
4.28791e-08
6.01609e-06
4.67844e-08
6.0209e-06
4.84734e-08
6.02539e-06
4.86208e-08
6.02959e-06
4.7753e-08
6.03356e-06
4.62108e-08
6.03731e-06
4.4199e-08
6.04087e-06
4.18455e-08
6.04425e-06
3.92306e-08
6.04748e-06
3.64045e-08
6.05052e-06
3.33988e-08
6.05337e-06
3.02383e-08
6.05597e-06
2.69519e-08
6.05827e-06
2.35859e-08
6.06021e-06
2.02206e-08
1.70046e-08
6.06175e-06
6.99811e-06
1.69659e-08
7.00354e-06
3.00006e-08
7.00917e-06
3.72562e-08
7.01472e-06
4.12308e-08
7.02009e-06
4.31057e-08
7.02521e-06
4.34996e-08
7.03008e-06
4.28843e-08
7.03471e-06
4.15808e-08
7.03911e-06
3.97915e-08
7.04331e-06
3.76476e-08
7.04731e-06
3.52362e-08
7.05109e-06
3.26166e-08
7.05466e-06
2.98322e-08
7.05798e-06
2.69208e-08
7.06101e-06
2.39234e-08
7.0637e-06
2.08932e-08
7.06602e-06
1.79042e-08
1.50789e-08
7.06794e-06
8.1624e-06
1.35764e-08
8.16765e-06
2.47571e-08
8.17341e-06
3.14894e-08
8.17932e-06
3.53291e-08
8.18517e-06
3.72535e-08
8.19086e-06
3.78067e-08
8.19635e-06
3.73952e-08
8.20162e-06
3.63092e-08
8.20667e-06
3.47416e-08
8.2115e-06
3.2822e-08
8.21609e-06
3.06409e-08
8.22044e-06
2.82638e-08
8.22453e-06
2.57423e-08
8.22833e-06
2.31223e-08
8.2318e-06
2.04508e-08
8.23492e-06
1.77809e-08
8.23764e-06
1.51765e-08
1.27353e-08
8.23999e-06
9.52072e-06
1.05873e-08
9.52571e-06
1.97683e-08
9.53152e-06
2.56745e-08
9.53768e-06
2.91724e-08
9.54393e-06
3.10002e-08
9.55013e-06
3.16117e-08
9.55618e-06
3.13426e-08
9.56204e-06
3.04432e-08
9.5677e-06
2.90888e-08
9.57312e-06
2.74023e-08
9.57828e-06
2.5473e-08
9.58318e-06
2.33687e-08
9.58777e-06
2.11445e-08
9.59205e-06
1.88493e-08
9.59597e-06
1.65304e-08
9.59951e-06
1.42364e-08
9.60267e-06
1.20196e-08
9.95568e-09
9.60545e-06
1.11054e-05
7.92085e-09
1.11101e-05
1.50467e-08
1.11159e-05
1.98753e-08
1.11222e-05
2.28301e-08
1.11288e-05
2.44131e-08
1.11355e-05
2.49758e-08
1.1142e-05
2.47809e-08
1.11484e-05
2.40314e-08
1.11546e-05
2.28775e-08
1.11606e-05
2.1429e-08
1.11663e-05
1.97687e-08
1.11717e-05
1.79617e-08
1.11768e-05
1.60617e-08
1.11815e-05
1.41157e-08
1.11859e-05
1.21671e-08
1.11899e-05
1.0257e-08
1.11935e-05
8.42637e-09
6.73292e-09
1.11967e-05
1.29541e-05
5.48752e-09
1.29586e-05
1.05499e-08
1.29643e-05
1.4107e-08
1.29708e-05
1.63319e-08
1.29777e-05
1.75262e-08
1.29848e-05
1.79334e-08
1.29918e-05
1.77423e-08
1.29987e-05
1.71039e-08
1.30055e-05
1.61356e-08
1.3012e-05
1.49276e-08
1.30182e-05
1.35502e-08
1.30241e-05
1.20601e-08
1.30296e-05
1.05049e-08
1.30348e-05
8.92559e-09
1.30396e-05
7.35828e-09
1.30441e-05
5.83572e-09
1.30481e-05
4.38862e-09
3.06018e-09
1.30518e-05
1.51108e-05
3.1872e-09
1.51151e-05
6.17598e-09
1.51209e-05
8.31171e-09
1.51276e-05
9.64278e-09
1.51348e-05
1.0316e-08
1.51423e-05
1.04688e-08
1.51498e-05
1.02153e-08
1.51573e-05
9.65076e-09
1.51645e-05
8.85377e-09
1.51716e-05
7.88788e-09
1.51783e-05
6.80494e-09
1.51847e-05
5.64818e-09
1.51908e-05
4.45432e-09
1.51965e-05
3.25493e-09
1.52017e-05
2.07727e-09
1.52066e-05
9.45092e-10
1.52111e-05
-1.19776e-10
-1.08544e-09
1.52153e-05
1.76267e-05
8.94825e-10
1.76312e-05
1.73793e-09
1.76372e-05
2.31573e-09
1.76442e-05
2.61352e-09
1.76519e-05
2.65479e-09
1.76599e-05
2.47382e-09
1.7668e-05
2.10698e-09
1.7676e-05
1.59028e-09
1.76839e-05
9.57595e-10
1.76916e-05
2.39898e-10
1.76989e-05
-5.34813e-10
1.77059e-05
-1.34141e-09
1.77125e-05
-2.15745e-09
1.77187e-05
-2.96316e-09
1.77245e-05
-3.7414e-09
1.773e-05
-4.47728e-09
1.7735e-05
-5.15681e-09
-5.7571e-09
1.77397e-05
1.78284e-05
-1.28388e-09
1.78326e-05
-2.49549e-09
1.78383e-05
-3.41885e-09
1.78451e-05
-4.12082e-09
1.78524e-05
-4.69205e-09
1.78601e-05
-5.19683e-09
1.78679e-05
-5.67344e-09
1.78756e-05
-6.14359e-09
1.78832e-05
-6.61747e-09
1.78905e-05
-7.09691e-09
1.78976e-05
-7.57823e-09
1.79043e-05
-8.05467e-09
1.79106e-05
-8.51804e-09
1.79166e-05
-8.95985e-09
1.79223e-05
-9.37204e-09
1.79275e-05
-9.74712e-09
1.79325e-05
-1.00771e-08
-1.03462e-08
1.7937e-05
1.58834e-05
-3.3376e-09
1.58873e-05
-6.42583e-09
1.58926e-05
-8.65473e-09
1.58986e-05
-1.01835e-08
1.59052e-05
-1.12365e-08
1.59119e-05
-1.19749e-08
1.59188e-05
-1.25051e-08
1.59255e-05
-1.29007e-08
1.59321e-05
-1.32107e-08
1.59385e-05
-1.34648e-08
1.59446e-05
-1.36798e-08
1.59504e-05
-1.38643e-08
1.59559e-05
-1.40214e-08
1.59611e-05
-1.41517e-08
1.5966e-05
-1.42538e-08
1.59706e-05
-1.43257e-08
1.59748e-05
-1.43637e-08
-1.43568e-08
1.59789e-05
1.41508e-05
-5.47373e-09
1.41548e-05
-1.03879e-08
1.41599e-05
-1.37519e-08
1.41656e-05
-1.59256e-08
1.41717e-05
-1.73143e-08
1.41779e-05
-1.81774e-08
1.41841e-05
-1.86851e-08
1.41901e-05
-1.89588e-08
1.4196e-05
-1.9081e-08
1.42016e-05
-1.91045e-08
1.4207e-05
-1.90619e-08
1.42121e-05
-1.89734e-08
1.4217e-05
-1.88509e-08
1.42215e-05
-1.87013e-08
1.42258e-05
-1.85284e-08
1.42298e-05
-1.83341e-08
1.42335e-05
-1.81177e-08
-1.78722e-08
1.42371e-05
1.26074e-05
-7.88415e-09
1.26117e-05
-1.46335e-08
1.26169e-05
-1.89329e-08
1.26225e-05
-2.15439e-08
1.26283e-05
-2.31073e-08
1.26341e-05
-2.3973e-08
1.26398e-05
-2.437e-08
1.26453e-05
-2.44636e-08
1.26505e-05
-2.43639e-08
1.26556e-05
-2.41408e-08
1.26604e-05
-2.38383e-08
1.26649e-05
-2.34844e-08
1.26691e-05
-2.30969e-08
1.26731e-05
-2.26869e-08
1.26768e-05
-2.22617e-08
1.26803e-05
-2.18258e-08
1.26836e-05
-2.13811e-08
-2.09239e-08
1.26866e-05
1.12327e-05
-1.07886e-08
1.12374e-05
-1.93669e-08
1.12428e-05
-2.43169e-08
1.12484e-05
-2.71198e-08
1.1254e-05
-2.86804e-08
1.12594e-05
-2.9415e-08
1.12646e-05
-2.96054e-08
1.12696e-05
-2.94556e-08
1.12744e-05
-2.90958e-08
1.12788e-05
-2.86063e-08
1.1283e-05
-2.80376e-08
1.1287e-05
-2.74218e-08
1.12907e-05
-2.67795e-08
1.12941e-05
-2.61238e-08
1.12973e-05
-2.54637e-08
1.13003e-05
-2.48056e-08
1.13031e-05
-2.41532e-08
-2.3506e-08
1.13056e-05
1.00083e-05
-1.44593e-08
1.00137e-05
-2.47361e-08
1.00193e-05
-2.99163e-08
1.00248e-05
-3.2623e-08
1.00301e-05
-3.39879e-08
1.00351e-05
-3.44505e-08
1.00398e-05
-3.43387e-08
1.00443e-05
-3.38863e-08
1.00484e-05
-3.32334e-08
1.00523e-05
-3.2463e-08
1.00558e-05
-3.16267e-08
1.00592e-05
-3.07567e-08
1.00623e-05
-2.98733e-08
1.00651e-05
-2.89893e-08
1.00678e-05
-2.81134e-08
1.00702e-05
-2.72525e-08
1.00725e-05
-2.64122e-08
-2.5596e-08
1.00746e-05
8.91786e-06
-1.92216e-08
8.92391e-06
-3.07891e-08
8.92961e-06
-3.56097e-08
8.93488e-06
-3.79003e-08
8.93977e-06
-3.88733e-08
8.94425e-06
-3.89326e-08
8.94835e-06
-3.844e-08
8.95211e-06
-3.76444e-08
8.95556e-06
-3.6683e-08
8.95873e-06
-3.5633e-08
8.96165e-06
-3.45414e-08
8.96433e-06
-3.34369e-08
8.96679e-06
-3.23363e-08
8.96905e-06
-3.12496e-08
8.97112e-06
-3.01836e-08
8.97302e-06
-2.91438e-08
8.97474e-06
-2.81371e-08
-2.71722e-08
8.97632e-06
7.94686e-06
-2.54164e-08
7.95348e-06
-3.74044e-08
7.95898e-06
-4.1111e-08
7.96375e-06
-4.26709e-08
7.96796e-06
-4.3086e-08
7.97168e-06
-4.26491e-08
7.97497e-06
-4.1736e-08
7.97792e-06
-4.05917e-08
7.98057e-06
-3.93363e-08
7.98297e-06
-3.80327e-08
7.98515e-06
-3.67181e-08
7.98713e-06
-3.5414e-08
7.98893e-06
-3.41319e-08
7.99056e-06
-3.28775e-08
7.99203e-06
-3.16532e-08
7.99334e-06
-3.04614e-08
7.99452e-06
-2.93087e-08
-2.82093e-08
7.99555e-06
7.08223e-06
-3.3313e-08
7.08902e-06
-4.41968e-08
7.09386e-06
-4.59511e-08
7.09773e-06
-4.65437e-08
7.10096e-06
-4.6317e-08
7.10368e-06
-4.53646e-08
7.10599e-06
-4.40493e-08
7.10799e-06
-4.25935e-08
7.10974e-06
-4.1088e-08
7.11129e-06
-3.95751e-08
7.11265e-06
-3.80799e-08
7.11385e-06
-3.66165e-08
7.11491e-06
-3.51912e-08
7.11584e-06
-3.38047e-08
7.11664e-06
-3.24546e-08
7.11732e-06
-3.11372e-08
7.11786e-06
-2.9854e-08
-2.86183e-08
7.11827e-06
6.31217e-06
-4.29755e-08
6.31832e-06
-5.03459e-08
6.32184e-06
-4.94666e-08
6.32435e-06
-4.90546e-08
6.32625e-06
-4.82181e-08
6.32768e-06
-4.67961e-08
6.32876e-06
-4.51305e-08
6.32958e-06
-4.34125e-08
6.33019e-06
-4.1702e-08
6.33064e-06
-4.00225e-08
6.33095e-06
-3.83883e-08
6.33114e-06
-3.68068e-08
6.33123e-06
-3.5279e-08
6.33123e-06
-3.3801e-08
6.33114e-06
-3.23644e-08
6.33096e-06
-3.09561e-08
6.33067e-06
-2.95629e-08
-2.81728e-08
6.33022e-06
5.62586e-06
-5.39341e-08
5.62969e-06
-5.41753e-08
5.63084e-06
-5.06251e-08
5.63117e-06
-4.93798e-08
5.63091e-06
-4.79649e-08
5.63023e-06
-4.61134e-08
5.62926e-06
-4.41546e-08
5.62808e-06
-4.22341e-08
5.62675e-06
-4.03771e-08
5.62532e-06
-3.85881e-08
5.6238e-06
-3.68708e-08
5.62223e-06
-3.52257e-08
5.6206e-06
-3.36495e-08
5.61893e-06
-3.21347e-08
5.61723e-06
-3.06683e-08
5.6155e-06
-2.92259e-08
5.61371e-06
-2.77666e-08
-2.61681e-08
5.6117e-06
5.01053e-06
-6.21604e-08
5.00697e-06
-5.06108e-08
5.00192e-06
-4.55812e-08
4.99617e-06
-4.36252e-08
4.98988e-06
-4.16747e-08
4.98331e-06
-3.95502e-08
4.97663e-06
-3.74741e-08
4.96991e-06
-3.5515e-08
4.9632e-06
-3.36673e-08
4.95654e-06
-3.19207e-08
4.94994e-06
-3.02691e-08
4.94342e-06
-2.87069e-08
4.937e-06
-2.72276e-08
4.93069e-06
-2.58231e-08
4.9245e-06
-2.44816e-08
4.91845e-06
-2.31777e-08
4.91254e-06
-2.1853e-08
-2.0067e-08
4.90644e-06
4.39439e-06
4.34378e-06
4.29819e-06
4.25457e-06
4.21289e-06
4.17334e-06
4.13587e-06
4.10036e-06
4.06669e-06
4.03477e-06
4.0045e-06
3.97579e-06
3.94857e-06
3.92274e-06
3.89826e-06
3.87508e-06
3.85323e-06
3.83316e-06
5.06141e-09
-5.06147e-09
1.20409e-08
-6.96758e-09
1.88432e-08
-6.79341e-09
2.44166e-08
-5.56669e-09
2.82378e-08
-3.81639e-09
3.00924e-08
-1.85075e-09
2.99251e-08
1.70578e-10
2.77987e-08
2.12968e-09
2.38438e-08
3.95831e-09
1.82292e-08
5.61838e-09
1.11029e-08
7.1306e-09
2.59003e-09
8.51784e-09
-7.20174e-09
9.79735e-09
-1.81569e-08
1.09615e-08
-3.01687e-08
1.20179e-08
-4.31491e-08
1.29861e-08
-5.70224e-08
1.3878e-08
-7.1719e-08
1.46996e-08
-8.71729e-08
1.54554e-08
-1.03323e-07
1.61497e-08
-1.20112e-07
1.67872e-08
-1.37487e-07
1.7373e-08
-1.55402e-07
1.79121e-08
-1.73814e-07
1.84102e-08
-1.92686e-07
1.88725e-08
-2.11989e-07
1.93042e-08
-2.31695e-07
1.971e-08
-2.51784e-07
2.00944e-08
-2.72238e-07
2.04613e-08
-2.93045e-07
2.08142e-08
-3.14195e-07
2.11559e-08
-3.3568e-07
2.1489e-08
-3.57494e-07
2.18155e-08
-3.79631e-07
2.21372e-08
-4.02089e-07
2.24553e-08
-4.24864e-07
2.27711e-08
-4.47953e-07
2.30853e-08
-4.71354e-07
2.33986e-08
-4.95066e-07
2.37115e-08
-5.19088e-07
2.4024e-08
-5.43421e-07
2.43362e-08
-5.68064e-07
2.46478e-08
-5.93018e-07
2.49581e-08
-6.18281e-07
2.52661e-08
-6.43852e-07
2.55706e-08
-6.69725e-07
2.58699e-08
-6.95893e-07
2.61622e-08
-7.22344e-07
2.64442e-08
-7.49065e-07
2.67123e-08
-7.76035e-07
2.6963e-08
-8.03235e-07
2.71955e-08
-8.30651e-07
2.74141e-08
-8.5828e-07
2.76292e-08
-8.86138e-07
2.78599e-08
-9.14286e-07
2.81502e-08
-9.42913e-07
2.86291e-08
-9.7196e-07
2.90482e-08
-1.00124e-06
2.92756e-08
-1.03076e-06
2.9517e-08
-1.06053e-06
2.97739e-08
-1.09057e-06
3.00354e-08
-1.12087e-06
3.02945e-08
-1.15141e-06
3.05463e-08
-1.1822e-06
3.07878e-08
-1.21322e-06
3.10162e-08
-1.24445e-06
3.12293e-08
-1.27587e-06
3.1425e-08
-1.30748e-06
3.16016e-08
-1.33924e-06
3.17575e-08
-1.37113e-06
3.18917e-08
-1.40313e-06
3.2003e-08
-1.43522e-06
3.20902e-08
-1.46737e-06
3.21522e-08
-1.49955e-06
3.21874e-08
-1.53174e-06
3.21944e-08
-1.56391e-06
3.21716e-08
-1.59603e-06
3.21178e-08
-1.62806e-06
3.20318e-08
-1.65997e-06
3.19128e-08
-1.69173e-06
3.17603e-08
-1.7233e-06
3.15739e-08
-1.75465e-06
3.13532e-08
-1.78575e-06
3.10974e-08
-1.81656e-06
3.08057e-08
-1.84704e-06
3.04777e-08
-1.87715e-06
3.01137e-08
-1.90687e-06
2.97146e-08
-1.93615e-06
2.92818e-08
-1.96496e-06
2.88165e-08
-1.99328e-06
2.83198e-08
-2.02107e-06
2.77928e-08
-2.0483e-06
2.72368e-08
-2.07496e-06
2.66541e-08
-2.10101e-06
2.60485e-08
-2.12644e-06
2.54247e-08
-2.15122e-06
2.47873e-08
-2.17536e-06
2.41407e-08
-2.19885e-06
2.34889e-08
-2.22168e-06
2.28364e-08
-2.24388e-06
2.21897e-08
-2.26544e-06
2.15565e-08
-2.28638e-06
2.09451e-08
-2.30674e-06
2.03626e-08
-2.32655e-06
1.98152e-08
-2.34585e-06
1.93092e-08
-2.36471e-06
1.88512e-08
-2.38316e-06
1.84492e-08
-2.40128e-06
1.81115e-08
-2.41913e-06
1.78459e-08
-2.43679e-06
1.76586e-08
-2.45434e-06
1.75546e-08
-2.47188e-06
1.75378e-08
-2.48949e-06
1.76117e-08
-2.50727e-06
1.77794e-08
-2.52532e-06
1.80433e-08
-2.54372e-06
1.84039e-08
-2.56257e-06
1.88601e-08
-2.58198e-06
1.941e-08
-2.60203e-06
2.00502e-08
-2.62281e-06
2.07765e-08
-2.6444e-06
2.15817e-08
-2.66686e-06
2.24566e-08
-2.69026e-06
2.33911e-08
-2.71463e-06
2.43738e-08
-2.74002e-06
2.53909e-08
-2.76644e-06
2.64246e-08
-2.7939e-06
2.74564e-08
-2.82237e-06
2.84689e-08
-2.85181e-06
2.94444e-08
-2.88216e-06
3.03612e-08
-2.91336e-06
3.11933e-08
-2.94527e-06
3.19136e-08
-2.97778e-06
3.24964e-08
-3.0107e-06
3.29157e-08
-3.04385e-06
3.31437e-08
-3.077e-06
3.31507e-08
-3.10991e-06
3.29053e-08
-3.14228e-06
3.23744e-08
-3.17381e-06
3.15273e-08
-3.20416e-06
3.034e-08
-3.23295e-06
2.87933e-08
-3.25981e-06
2.68663e-08
-3.28435e-06
2.45349e-08
-3.30613e-06
2.1776e-08
-3.32471e-06
1.85738e-08
-3.33963e-06
1.4922e-08
-3.35045e-06
1.08179e-08
-3.35668e-06
6.24459e-09
-3.35787e-06
1.18316e-09
-3.35356e-06
-4.30846e-09
-3.34337e-06
-1.0183e-08
-3.32691e-06
-1.64561e-08
-3.3038e-06
-2.31224e-08
-3.27364e-06
-3.01649e-08
-3.2361e-06
-3.75522e-08
-3.19085e-06
-4.52554e-08
-3.13761e-06
-5.32425e-08
-3.07615e-06
-6.14625e-08
-3.00629e-06
-6.98523e-08
-2.92794e-06
-7.83483e-08
-2.84104e-06
-8.68965e-08
-2.74564e-06
-9.54049e-08
-2.64183e-06
-1.03796e-07
-2.52981e-06
-1.12003e-07
-2.40988e-06
-1.19934e-07
-2.28233e-06
-1.27542e-07
-2.14763e-06
-1.34706e-07
-2.00625e-06
-1.41371e-07
-1.85876e-06
-1.47503e-07
-1.70575e-06
-1.53011e-07
-1.54787e-06
-1.57885e-07
-1.38579e-06
-1.62079e-07
-1.22026e-06
-1.65545e-07
-1.05199e-06
-1.68265e-07
-8.81845e-07
-1.70139e-07
-7.10744e-07
-1.71102e-07
-5.39778e-07
-1.70964e-07
-3.74484e-07
-1.65277e-07
-2.15148e-07
-1.59345e-07
-1.28615e-07
-8.65279e-08
5.35193e-09
-1.04436e-08
9.70548e-09
-1.13584e-08
1.22316e-08
-9.34279e-09
1.30079e-08
-6.36e-09
1.21077e-08
-2.93031e-09
9.56196e-09
6.82673e-10
5.43627e-09
4.28562e-09
-1.85346e-10
7.74244e-09
-7.2206e-09
1.09862e-08
-1.55726e-08
1.39644e-08
-2.51378e-08
1.66911e-08
-3.58088e-08
1.91851e-08
-4.74751e-08
2.14605e-08
-6.00462e-08
2.35297e-08
-7.34448e-08
2.54136e-08
-8.75953e-08
2.71333e-08
-1.02427e-07
2.87061e-08
-1.17879e-07
3.01466e-08
-1.33896e-07
3.14672e-08
-1.50432e-07
3.26796e-08
-1.67445e-07
3.37947e-08
-1.849e-07
3.48231e-08
-2.02765e-07
3.57751e-08
-2.21017e-07
3.66608e-08
-2.39632e-07
3.74895e-08
-2.58594e-07
3.82699e-08
-2.77889e-07
3.90101e-08
-2.97505e-07
3.97171e-08
-3.17434e-07
4.03973e-08
-3.3767e-07
4.10563e-08
-3.58208e-07
4.16988e-08
-3.79045e-07
4.2329e-08
-4.00178e-07
4.29502e-08
-4.21607e-07
4.35652e-08
-4.4333e-07
4.41764e-08
-4.65346e-07
4.47854e-08
-4.87655e-07
4.53935e-08
-5.10258e-07
4.60017e-08
-5.33155e-07
4.66103e-08
-5.56348e-07
4.72195e-08
-5.79837e-07
4.78292e-08
-6.03625e-07
4.84389e-08
-6.27715e-07
4.9048e-08
-6.52106e-07
4.96559e-08
-6.76801e-07
5.02615e-08
-7.01802e-07
5.0864e-08
-7.2711e-07
5.14623e-08
-7.52729e-07
5.20549e-08
-7.78664e-07
5.26404e-08
-8.04924e-07
5.32175e-08
-8.31517e-07
5.3786e-08
-8.5845e-07
5.43467e-08
-8.85723e-07
5.49025e-08
-9.13324e-07
5.5462e-08
-9.41217e-07
5.60441e-08
-9.69255e-07
5.66667e-08
-9.9748e-07
5.72718e-08
-1.02603e-06
5.7818e-08
-1.05485e-06
5.83442e-08
-1.08394e-06
5.88611e-08
-1.11328e-06
5.93665e-08
-1.14284e-06
5.98561e-08
-1.17262e-06
6.03254e-08
-1.2026e-06
6.07704e-08
-1.23277e-06
6.11876e-08
-1.26312e-06
6.15737e-08
-1.29362e-06
6.19253e-08
-1.32426e-06
6.22397e-08
-1.35502e-06
6.25139e-08
-1.38587e-06
6.27453e-08
-1.4168e-06
6.29312e-08
-1.44777e-06
6.30694e-08
-1.47877e-06
6.31573e-08
-1.50977e-06
6.31929e-08
-1.54075e-06
6.31736e-08
-1.57168e-06
6.30973e-08
-1.60252e-06
6.29619e-08
-1.63325e-06
6.27653e-08
-1.66384e-06
6.25059e-08
-1.69426e-06
6.21823e-08
-1.72448e-06
6.17935e-08
-1.75446e-06
6.13385e-08
-1.78418e-06
6.08165e-08
-1.8136e-06
6.02271e-08
-1.84269e-06
5.95703e-08
-1.87143e-06
5.88466e-08
-1.89977e-06
5.80573e-08
-1.92769e-06
5.7204e-08
-1.95516e-06
5.62893e-08
-1.98216e-06
5.53159e-08
-2.00865e-06
5.42874e-08
-2.03463e-06
5.32079e-08
-2.06006e-06
5.20826e-08
-2.08492e-06
5.09175e-08
-2.10921e-06
4.97194e-08
-2.13292e-06
4.84962e-08
-2.15603e-06
4.72565e-08
-2.17855e-06
4.60102e-08
-2.20048e-06
4.47685e-08
-2.22184e-06
4.35439e-08
-2.24263e-06
4.23494e-08
-2.26288e-06
4.11985e-08
-2.28263e-06
4.01043e-08
-2.30189e-06
3.90805e-08
-2.32073e-06
3.81409e-08
-2.33918e-06
3.72993e-08
-2.3573e-06
3.65698e-08
-2.37515e-06
3.59656e-08
-2.3928e-06
3.54991e-08
-2.41032e-06
3.51819e-08
-2.42779e-06
3.50243e-08
-2.44529e-06
3.50354e-08
-2.46291e-06
3.52227e-08
-2.48073e-06
3.55912e-08
-2.49883e-06
3.61437e-08
-2.51731e-06
3.68804e-08
-2.53625e-06
3.77992e-08
-2.55573e-06
3.88955e-08
-2.57584e-06
4.0162e-08
-2.59665e-06
4.15877e-08
-2.61822e-06
4.31576e-08
-2.64062e-06
4.48533e-08
-2.66388e-06
4.66535e-08
-2.68804e-06
4.85336e-08
-2.71312e-06
5.04661e-08
-2.73912e-06
5.24201e-08
-2.76604e-06
5.43619e-08
-2.79383e-06
5.62538e-08
-2.82244e-06
5.80539e-08
-2.8518e-06
5.9716e-08
-2.8818e-06
6.11919e-08
-2.91231e-06
6.24317e-08
-2.9432e-06
6.3383e-08
-2.97427e-06
6.39905e-08
-3.00532e-06
6.41961e-08
-3.03611e-06
6.39412e-08
-3.06637e-06
6.31666e-08
-3.09582e-06
6.18142e-08
-3.12413e-06
5.98294e-08
-3.15095e-06
5.71608e-08
-3.17591e-06
5.37589e-08
-3.19863e-06
4.95785e-08
-3.21868e-06
4.45839e-08
-3.23567e-06
3.87469e-08
-3.24913e-06
3.20381e-08
-3.25864e-06
2.44286e-08
-3.26373e-06
1.59044e-08
-3.26393e-06
6.43819e-09
-3.25884e-06
-3.92102e-09
-3.24809e-06
-1.50615e-08
-3.23131e-06
-2.69616e-08
-3.20812e-06
-3.9637e-08
-3.17817e-06
-5.30719e-08
-3.14109e-06
-6.72296e-08
-3.09657e-06
-8.20613e-08
-3.04431e-06
-9.75059e-08
-2.98408e-06
-1.13482e-07
-2.91565e-06
-1.29889e-07
-2.83889e-06
-1.46617e-07
-2.75371e-06
-1.63537e-07
-2.6601e-06
-1.8051e-07
-2.55811e-06
-1.974e-07
-2.44787e-06
-2.14051e-07
-2.32958e-06
-2.30299e-07
-2.20355e-06
-2.45984e-07
-2.0701e-06
-2.60984e-07
-1.92969e-06
-2.75117e-07
-1.78281e-06
-2.88247e-07
-1.63003e-06
-3.00287e-07
-1.47194e-06
-3.1108e-07
-1.30921e-06
-3.20618e-07
-1.14251e-06
-3.28772e-07
-9.72554e-07
-3.35497e-07
-8.00061e-07
-3.4076e-07
-6.259e-07
-3.44308e-07
-4.50862e-07
-3.46143e-07
-2.76531e-07
-3.45302e-07
-1.03662e-07
-3.38159e-07
6.0627e-08
-3.23634e-07
-2.85075e-07
2.17073e-07
2.45858e-09
-1.28922e-08
2.90828e-09
-1.18075e-08
1.52477e-09
-7.95881e-09
-1.45226e-09
-3.3823e-09
-5.82006e-09
1.43787e-09
-1.13887e-08
6.25168e-09
-1.80184e-08
1.09155e-08
-2.5633e-08
1.53577e-08
-3.41769e-08
1.95311e-08
-4.36204e-08
2.34092e-08
-5.39164e-08
2.69889e-08
-6.50075e-08
3.02783e-08
-7.68356e-08
3.32911e-08
-8.9348e-08
3.60446e-08
-1.02492e-07
3.85601e-08
-1.16217e-07
4.08598e-08
-1.30474e-07
4.29647e-08
-1.45222e-07
4.48947e-08
-1.60423e-07
4.66682e-08
-1.76047e-07
4.83022e-08
-1.92066e-07
4.98129e-08
-2.08459e-07
5.12153e-08
-2.25208e-07
5.25237e-08
-2.42298e-07
5.37512e-08
-2.59717e-07
5.491e-08
-2.77456e-07
5.60111e-08
-2.95507e-07
5.70645e-08
-3.13865e-07
5.8079e-08
-3.32527e-07
5.90623e-08
-3.51489e-07
6.00213e-08
-3.7075e-07
6.09617e-08
-3.90308e-07
6.18884e-08
-4.10164e-07
6.28055e-08
-4.30317e-07
6.37164e-08
-4.50767e-07
6.46239e-08
-4.71513e-07
6.55299e-08
-4.92557e-07
6.6436e-08
-5.13899e-07
6.73433e-08
-5.35539e-07
6.82524e-08
-5.57481e-07
6.91635e-08
-5.79726e-07
7.00765e-08
-6.02276e-07
7.09911e-08
-6.25134e-07
7.19066e-08
-6.48301e-07
7.28223e-08
-6.71779e-07
7.37374e-08
-6.9557e-07
7.46509e-08
-7.19674e-07
7.55618e-08
-7.44093e-07
7.64691e-08
-7.68828e-07
7.73714e-08
-7.9388e-07
7.82675e-08
-8.19251e-07
7.91564e-08
-8.44941e-07
8.00372e-08
-8.70947e-07
8.09097e-08
-8.97259e-07
8.17754e-08
-9.23852e-07
8.26374e-08
-9.50679e-07
8.3494e-08
-9.77735e-07
8.43273e-08
-1.00505e-06
8.51287e-08
-1.03261e-06
8.59059e-08
-1.06041e-06
8.66611e-08
-1.08844e-06
8.73919e-08
-1.11668e-06
8.8094e-08
-1.14511e-06
8.87625e-08
-1.17373e-06
8.93926e-08
-1.20253e-06
8.99799e-08
-1.23147e-06
9.05197e-08
-1.26056e-06
9.10079e-08
-1.28976e-06
9.14405e-08
-1.31906e-06
9.18135e-08
-1.34844e-06
9.21233e-08
-1.37787e-06
9.23661e-08
-1.40734e-06
9.25385e-08
-1.43682e-06
9.26371e-08
-1.46628e-06
9.26586e-08
-1.49571e-06
9.25999e-08
-1.52507e-06
9.2458e-08
-1.55433e-06
9.22298e-08
-1.58348e-06
9.19128e-08
-1.61248e-06
9.15048e-08
-1.6413e-06
9.10039e-08
-1.66991e-06
9.04087e-08
-1.69829e-06
8.97178e-08
-1.7264e-06
8.89304e-08
-1.75422e-06
8.80463e-08
-1.78172e-06
8.70656e-08
-1.80886e-06
8.59894e-08
-1.83562e-06
8.48194e-08
-1.86198e-06
8.35584e-08
-1.88789e-06
8.22098e-08
-1.91336e-06
8.07778e-08
-1.93834e-06
7.92678e-08
-1.96282e-06
7.76864e-08
-1.98678e-06
7.60413e-08
-2.0102e-06
7.43415e-08
-2.03308e-06
7.2597e-08
-2.0554e-06
7.08192e-08
-2.07716e-06
6.9021e-08
-2.09837e-06
6.7217e-08
-2.11903e-06
6.54235e-08
-2.13914e-06
6.36581e-08
-2.15873e-06
6.19394e-08
-2.17781e-06
6.02862e-08
-2.19643e-06
5.87179e-08
-2.2146e-06
5.72544e-08
-2.23238e-06
5.59157e-08
-2.2498e-06
5.47222e-08
-2.26693e-06
5.36935e-08
-2.28381e-06
5.28485e-08
-2.30052e-06
5.22047e-08
-2.31711e-06
5.17783e-08
-2.33367e-06
5.1584e-08
-2.35027e-06
5.16342e-08
-2.36699e-06
5.19391e-08
-2.3839e-06
5.25054e-08
-2.4011e-06
5.33364e-08
-2.41865e-06
5.4432e-08
-2.43664e-06
5.57887e-08
-2.45514e-06
5.73994e-08
-2.47423e-06
5.92523e-08
-2.49398e-06
6.13306e-08
-2.51443e-06
6.36119e-08
-2.53565e-06
6.60689e-08
-2.55766e-06
6.86689e-08
-2.5805e-06
7.1375e-08
-2.60418e-06
7.41456e-08
-2.6287e-06
7.69347e-08
-2.65403e-06
7.96909e-08
-2.68013e-06
8.23575e-08
-2.70695e-06
8.48714e-08
-2.7344e-06
8.71655e-08
-2.76238e-06
8.91691e-08
-2.79076e-06
9.08078e-08
-2.81938e-06
9.20029e-08
-2.84806e-06
9.26715e-08
-2.8766e-06
9.2728e-08
-2.90474e-06
9.20856e-08
-2.93223e-06
9.06574e-08
-2.95878e-06
8.83588e-08
-2.98406e-06
8.51087e-08
-3.00773e-06
8.08301e-08
-3.02942e-06
7.54497e-08
-3.04875e-06
6.8902e-08
-3.0653e-06
6.11354e-08
-3.07866e-06
5.2109e-08
-3.08841e-06
4.17823e-08
-3.09409e-06
3.01154e-08
-3.09527e-06
1.70859e-08
-3.09151e-06
2.67917e-09
-3.08246e-06
-1.29743e-08
-3.06778e-06
-2.97418e-08
-3.0471e-06
-4.76424e-08
-3.02006e-06
-6.66778e-08
-2.98632e-06
-8.68187e-08
-2.94554e-06
-1.08012e-07
-2.89742e-06
-1.30188e-07
-2.84167e-06
-1.5325e-07
-2.77807e-06
-1.7708e-07
-2.70643e-06
-2.01535e-07
-2.62659e-06
-2.26447e-07
-2.53851e-06
-2.5162e-07
-2.44217e-06
-2.7685e-07
-2.33762e-06
-3.01943e-07
-2.22499e-06
-3.2668e-07
-2.10448e-06
-3.50798e-07
-1.97641e-06
-3.74065e-07
-1.84108e-06
-3.96311e-07
-1.69893e-06
-4.17271e-07
-1.55045e-06
-4.36726e-07
-1.39615e-06
-4.54586e-07
-1.23663e-06
-4.70604e-07
-1.07247e-06
-4.84777e-07
-9.04329e-07
-4.96915e-07
-7.3281e-07
-5.07016e-07
-5.5856e-07
-5.1501e-07
-3.82277e-07
-5.2059e-07
-2.04748e-07
-5.23668e-07
-2.76515e-08
-5.22402e-07
1.45695e-07
-5.11504e-07
3.11525e-07
-4.8946e-07
-4.48345e-07
4.74791e-07
-1.12544e-09
-1.17813e-08
-4.38407e-09
-8.56333e-09
-9.11066e-09
-3.23908e-09
-1.49522e-08
2.45497e-09
-2.16543e-08
8.13649e-09
-2.90675e-08
1.36622e-08
-3.71264e-08
1.89723e-08
-4.57942e-08
2.4024e-08
-5.5051e-08
2.87868e-08
-6.48852e-08
3.3243e-08
-7.52827e-08
3.73864e-08
-8.62244e-08
4.12206e-08
-9.76883e-08
4.4756e-08
-1.0965e-07
4.8008e-08
-1.22085e-07
5.09962e-08
-1.34966e-07
5.37417e-08
-1.48267e-07
5.62668e-08
-1.61966e-07
5.85933e-08
-1.76041e-07
6.07428e-08
-1.90475e-07
6.27354e-08
-2.05253e-07
6.45902e-08
-2.20363e-07
6.63251e-08
-2.35797e-07
6.79566e-08
-2.51545e-07
6.94999e-08
-2.67602e-07
7.09685e-08
-2.83964e-07
7.23748e-08
-3.00626e-07
7.37299e-08
-3.17587e-07
7.50433e-08
-3.34845e-07
7.63235e-08
-3.52399e-07
7.75778e-08
-3.70248e-07
7.88126e-08
-3.88392e-07
8.00331e-08
-4.06831e-07
8.12438e-08
-4.25565e-07
8.24485e-08
-4.44593e-07
8.36502e-08
-4.63916e-07
8.48511e-08
-4.83534e-07
8.60533e-08
-5.03449e-07
8.72578e-08
-5.23661e-07
8.84654e-08
-5.44172e-07
8.96764e-08
-5.64984e-07
9.08907e-08
-5.86099e-07
9.21081e-08
-6.0752e-07
9.33278e-08
-6.29247e-07
9.4549e-08
-6.51282e-07
9.57706e-08
-6.73625e-07
9.69914e-08
-6.96277e-07
9.821e-08
-7.19237e-07
9.94249e-08
-7.42502e-07
1.00634e-07
-7.66072e-07
1.01836e-07
-7.89944e-07
1.03027e-07
-8.14111e-07
1.04206e-07
-8.3857e-07
1.05369e-07
-8.63308e-07
1.06515e-07
-8.88313e-07
1.07643e-07
-9.13567e-07
1.08748e-07
-9.39066e-07
1.09825e-07
-9.64808e-07
1.1087e-07
-9.90786e-07
1.11883e-07
-1.01699e-06
1.12862e-07
-1.0434e-06
1.13804e-07
-1.07001e-06
1.14704e-07
-1.0968e-06
1.15556e-07
-1.12377e-06
1.16356e-07
-1.15088e-06
1.17097e-07
-1.17814e-06
1.17775e-07
-1.20552e-06
1.18384e-07
-1.233e-06
1.18919e-07
-1.26056e-06
1.19375e-07
-1.28818e-06
1.19748e-07
-1.31585e-06
1.20033e-07
-1.34353e-06
1.20225e-07
-1.37122e-06
1.20321e-07
-1.39887e-06
1.20316e-07
-1.42648e-06
1.20206e-07
-1.45401e-06
1.19987e-07
-1.48143e-06
1.19656e-07
-1.50873e-06
1.1921e-07
-1.53587e-06
1.18646e-07
-1.56282e-06
1.17961e-07
-1.58957e-06
1.17155e-07
-1.61608e-06
1.16224e-07
-1.64232e-06
1.15169e-07
-1.66826e-06
1.1399e-07
-1.69388e-06
1.12686e-07
-1.71915e-06
1.11259e-07
-1.74404e-06
1.09712e-07
-1.76853e-06
1.08049e-07
-1.79259e-06
1.06273e-07
-1.8162e-06
1.0439e-07
-1.83935e-06
1.02408e-07
-1.862e-06
1.00336e-07
-1.88414e-06
9.81823e-08
-1.90575e-06
9.59601e-08
-1.92684e-06
9.36823e-08
-1.94738e-06
9.13639e-08
-1.96738e-06
8.90218e-08
-1.98684e-06
8.66751e-08
-2.00576e-06
8.43449e-08
-2.02416e-06
8.20538e-08
-2.04205e-06
7.98255e-08
-2.05944e-06
7.76845e-08
-2.07638e-06
7.56558e-08
-2.09289e-06
7.3765e-08
-2.10901e-06
7.20382e-08
-2.12479e-06
7.05015e-08
-2.14028e-06
6.91799e-08
-2.15553e-06
6.80975e-08
-2.1706e-06
6.72768e-08
-2.18556e-06
6.67383e-08
-2.20048e-06
6.65005e-08
-2.21543e-06
6.65794e-08
-2.23048e-06
6.69873e-08