/*--------------------------------*- C++ -*----------------------------------*\
| =========                 |                                                 |
| \\      /  F ield         | OpenFOAM: The Open Source CFD Toolbox           |
|  \\    /   O peration     | Version:  1.4.2                                 |
|   \\  /    A nd           | Web:      http://www.openfoam.org               |
|    \\/     M anipulation  |                                                 |
\*---------------------------------------------------------------------------*/
FoamFile
{
    version     2.0;
    format      ascii;
    class       volVectorField;
    object      U;
    location    "650";
}
// * * * * * * * * * * * * * * * * * * * * * * * * * * * * * * * * * * * * * //

dimensions      [0 1 -1 0 0 0 0];

internalField   nonuniform List<vector> 
12225
(
(9.77631 0.0380804 0)
(9.58166 0.0388032 0)
(9.36739 0.0370206 0)
(9.16175 0.0361555 0)
(8.97093 0.0352099 0)
(8.79277 0.0340379 0)
(8.6261 0.0327678 0)
(8.47062 0.0314629 0)
(8.326 0.0301371 0)
(8.19176 0.0287955 0)
(8.06746 0.0274416 0)
(7.95266 0.0260754 0)
(7.847 0.0246896 0)
(7.75019 0.0232642 0)
(7.66212 0.021752 0)
(7.58301 0.0200314 0)
(7.51456 0.0178382 0)
(7.45027 0.00466461 0)
(10.004 0.0585734 0)
(10.0077 0.0555226 0)
(9.98308 0.0518552 0)
(9.95111 0.0514233 0)
(9.9183 0.0511433 0)
(9.88419 0.0504818 0)
(9.84876 0.0496428 0)
(9.81261 0.0487165 0)
(9.77622 0.0477023 0)
(9.73991 0.0465916 0)
(9.70401 0.0453778 0)
(9.66881 0.0440463 0)
(9.63463 0.0425642 0)
(9.60185 0.0408632 0)
(9.57098 0.0387978 0)
(9.54281 0.0360256 0)
(9.51889 0.0316994 0)
(9.49733 0.021965 0)
(10.0174 0.0524258 0)
(10.037 0.0526661 0)
(10.0383 0.0512367 0)
(10.0338 0.0521811 0)
(10.0285 0.0528031 0)
(10.0223 0.0527852 0)
(10.0149 0.0524581 0)
(10.0069 0.0519652 0)
(9.99848 0.0513245 0)
(9.98978 0.0505337 0)
(9.98094 0.0495849 0)
(9.97212 0.0484528 0)
(9.96348 0.0470806 0)
(9.95522 0.0453571 0)
(9.94761 0.0430611 0)
(9.94095 0.0397324 0)
(9.93554 0.0343351 0)
(9.92807 0.0243152 0)
(10.0158 0.0449512 0)
(10.0376 0.0501244 0)
(10.0459 0.0506539 0)
(10.0489 0.052162 0)
(10.051 0.0531329 0)
(10.0522 0.053421 0)
(10.0526 0.0533413 0)
(10.0524 0.0530407 0)
(10.0519 0.0525486 0)
(10.0513 0.0518684 0)
(10.0505 0.0509909 0)
(10.0499 0.0498831 0)
(10.0493 0.0484756 0)
(10.049 0.0466398 0)
(10.0491 0.0441435 0)
(10.0496 0.0405737 0)
(10.0502 0.0352563 0)
(10.0488 0.0272738 0)
(10.0125 0.0370798 0)
(10.0331 0.0461461 0)
(10.0446 0.048574 0)
(10.0509 0.0506864 0)
(10.056 0.0519872 0)
(10.0603 0.0525136 0)
(10.0638 0.0525928 0)
(10.0667 0.0523889 0)
(10.0694 0.0519482 0)
(10.0718 0.051281 0)
(10.0742 0.0503785 0)
(10.0765 0.0492056 0)
(10.0789 0.0476905 0)
(10.0815 0.0457075 0)
(10.0842 0.0430519 0)
(10.0869 0.0394131 0)
(10.0893 0.0344167 0)
(10.09 0.0278364 0)
(10.0094 0.0302322 0)
(10.0273 0.0413808 0)
(10.0399 0.0454307 0)
(10.0483 0.0482162 0)
(10.0552 0.0499088 0)
(10.0612 0.0507101 0)
(10.0663 0.0509655 0)
(10.0709 0.0508599 0)
(10.0752 0.0504631 0)
(10.0792 0.0497999 0)
(10.0831 0.0488671 0)
(10.0869 0.0476331 0)
(10.0906 0.0460314 0)
(10.0944 0.0439529 0)
(10.0981 0.0412374 0)
(10.1016 0.0376798 0)
(10.1046 0.0331115 0)
(10.1063 0.0276122 0)
(10.0067 0.024476 0)
(10.0216 0.0363815 0)
(10.0341 0.0415842 0)
(10.0434 0.0449362 0)
(10.0514 0.0470186 0)
(10.0585 0.048117 0)
(10.0648 0.0485735 0)
(10.0704 0.0485885 0)
(10.0757 0.0482531 0)
(10.0807 0.0476066 0)
(10.0854 0.0466554 0)
(10.09 0.0453766 0)
(10.0945 0.0437172 0)
(10.0989 0.0415938 0)
(10.1031 0.0388957 0)
(10.1069 0.0355073 0)
(10.1102 0.0313858 0)
(10.1125 0.0267174 0)
(10.005 0.0203566 0)
(10.0173 0.0322057 0)
(10.0291 0.0380091 0)
(10.0386 0.0417147 0)
(10.047 0.0440579 0)
(10.0545 0.0453691 0)
(10.0614 0.0459838 0)
(10.0677 0.0461052 0)
(10.0735 0.0458336 0)
(10.079 0.0452169 0)
(10.0843 0.0442695 0)
(10.0894 0.0429784 0)
(10.0942 0.0413055 0)
(10.0989 0.0391916 0)
(10.1033 0.0365667 0)
(10.1073 0.0333737 0)
(10.1107 0.0296307 0)
(10.1132 0.0255411 0)
(10.0038 0.0172029 0)
(10.0141 0.0286216 0)
(10.0249 0.0347184 0)
(10.0342 0.03865 0)
(10.0426 0.0411729 0)
(10.0504 0.0426408 0)
(10.0576 0.0433776 0)
(10.0642 0.0435844 0)
(10.0704 0.0433671 0)
(10.0763 0.0427809 0)
(10.0819 0.0418471 0)
(10.0872 0.0405617 0)
(10.0923 0.0389 0)
(10.0971 0.0368239 0)
(10.1016 0.0342944 0)
(10.1057 0.031294 0)
(10.1092 0.0278733 0)
(10.112 0.0242293 0)
(10.0029 0.0143484 0)
(10.0112 0.0249783 0)
(10.0208 0.0311331 0)
(10.0297 0.0351698 0)
(10.0379 0.037808 0)
(10.0457 0.0393958 0)
(10.0529 0.0402346 0)
(10.0597 0.0405176 0)
(10.0661 0.0403536 0)
(10.0722 0.0398026 0)
(10.078 0.0388929 0)
(10.0835 0.0376301 0)
(10.0888 0.036004 0)
(10.0937 0.0339975 0)
(10.0983 0.0315983 0)
(10.1024 0.0288186 0)
(10.1059 0.0257254 0)
(10.1089 0.022499 0)
(10.0021 0.0117914 0)
(10.0088 0.0213605 0)
(10.0171 0.0273372 0)
(10.0253 0.031333 0)
(10.0331 0.0339947 0)
(10.0406 0.0356434 0)
(10.0477 0.0365458 0)
(10.0545 0.0368826 0)
(10.061 0.0367611 0)
(10.0671 0.0362444 0)
(10.073 0.035367 0)
(10.0786 0.0341442 0)
(10.0838 0.0325797 0)
(10.0888 0.0306748 0)
(10.0933 0.0284386 0)
(10.0974 0.0259025 0)
(10.101 0.023138 0)
(10.1041 0.0203022 0)
(10.0015 0.00952771 0)
(10.0068 0.0178446 0)
(10.0139 0.0234115 0)
(10.0212 0.0272144 0)
(10.0284 0.029791 0)
(10.0355 0.031423 0)
(10.0424 0.032336 0)
(10.049 0.0326916 0)
(10.0553 0.0325925 0)
(10.0614 0.0321026 0)
(10.0672 0.0312612 0)
(10.0726 0.0300923 0)
(10.0778 0.0286117 0)
(10.0827 0.0268353 0)
(10.0871 0.024787 0)
(10.0912 0.0225079 0)
(10.0948 0.020066 0)
(10.098 0.0175923 0)
(10.0011 0.00753452 0)
(10.0052 0.0144858 0)
(10.0111 0.0194297 0)
(10.0176 0.0228874 0)
(10.0242 0.0252627 0)
(10.0307 0.0267892 0)
(10.0372 0.0276491 0)
(10.0435 0.0279804 0)
(10.0495 0.0278768 0)
(10.0554 0.0274007 0)
(10.0609 0.0265946 0)
(10.0662 0.0254889 0)
(10.0712 0.0241084 0)
(10.0759 0.022479 0)
(10.0802 0.0206327 0)
(10.0841 0.0186128 0)
(10.0876 0.0164793 0)
(10.0909 0.014338 0)
(10.0009 0.00576852 0)
(10.0041 0.0113068 0)
(10.0089 0.0154478 0)
(10.0146 0.0184123 0)
(10.0205 0.0204687 0)
(10.0264 0.0217962 0)
(10.0324 0.0225342 0)
(10.0383 0.0227937 0)
(10.044 0.0226556 0)
(10.0495 0.0221779 0)
(10.0547 0.0214031 0)
(10.0597 0.0203653 0)
(10.0645 0.0190946 0)
(10.0689 0.0176214 0)
(10.073 0.01598 0)
(10.0768 0.0142114 0)
(10.0802 0.0123655 0)
(10.0833 0.0105255 0)
(10.0007 0.00417558 0)
(10.0032 0.00829504 0)
(10.0073 0.0114931 0)
(10.0121 0.0138267 0)
(10.0174 0.0154497 0)
(10.0228 0.0164845 0)
(10.0282 0.0170302 0)
(10.0337 0.0171689 0)
(10.0389 0.0169653 0)
(10.0441 0.0164692 0)
(10.049 0.0157199 0)
(10.0537 0.014751 0)
(10.0581 0.0135932 0)
(10.0623 0.0122774 0)
(10.0661 0.0108356 0)
(10.0697 0.00930327 0)
(10.073 0.00772013 0)
(10.076 0.00615083 0)
(10.0005 0.00269628 0)
(10.0026 0.00540187 0)
(10.0061 0.00755094 0)
(10.0103 0.00913074 0)
(10.0149 0.0102117 0)
(10.0198 0.0108637 0)
(10.0248 0.0111475 0)
(10.0298 0.0111164 0)
(10.0347 0.0108159 0)
(10.0395 0.0102835 0)
(10.044 0.00955145 0)
(10.0484 0.00864858 0)
(10.0525 0.00760215 0)
(10.0564 0.00643903 0)
(10.06 0.00518638 0)
(10.0634 0.00387229 0)
(10.0665 0.00252721 0)
(10.0694 0.0012005 0)
(10.0005 0.00126519 0)
(10.0023 0.00254232 0)
(10.0053 0.00355509 0)
(10.009 0.0042742 0)
(10.0133 0.00471495 0)
(10.0177 0.00490138 0)
(10.0223 0.00485833 0)
(10.0269 0.00461059 0)
(10.0315 0.0041818 0)
(10.0359 0.00359402 0)
(10.0402 0.00286798 0)
(10.0442 0.00202384 0)
(10.0481 0.00108161 0)
(10.0518 6.13013e-05 0)
(10.0552 -0.00101709 0)
(10.0584 -0.00213327 0)
(10.0613 -0.00326516 0)
(10.0641 -0.00437508 0)
(10.0004 -0.000118112 0)
(10.0021 -0.000246949 0)
(10.005 -0.000382904 0)
(10.0085 -0.000552826 0)
(10.0125 -0.000782724 0)
(10.0168 -0.00108954 0)
(10.0211 -0.00148217 0)
(10.0255 -0.0019638 0)
(10.0298 -0.00253333 0)
(10.034 -0.00318619 0)
(10.0381 -0.00391499 0)
(10.0419 -0.00471039 0)
(10.0456 -0.00556163 0)
(10.0491 -0.00645696 0)
(10.0523 -0.0073841 0)
(10.0554 -0.00833017 0)
(10.0582 -0.00928037 0)
(10.061 -0.0102069 0)
(10.0004 -0.00143187 0)
(10.0022 -0.00288073 0)
(10.0052 -0.00407608 0)
(10.0088 -0.00505198 0)
(10.0128 -0.00588139 0)
(10.0171 -0.00662305 0)
(10.0214 -0.00731872 0)
(10.0257 -0.00799876 0)
(10.0299 -0.00868391 0)
(10.034 -0.00938654 0)
(10.0379 -0.0101126 0)
(10.0417 -0.0108631 0)
(10.0452 -0.0116361 0)
(10.0486 -0.0124272 0)
(10.0518 -0.0132305 0)
(10.0548 -0.0140391 0)
(10.0575 -0.0148435 0)
(10.0602 -0.0156235 0)
(10.0005 -0.00273609 0)
(10.0026 -0.00543751 0)
(10.0059 -0.00757276 0)
(10.0098 -0.0092251 0)
(10.014 -0.0105385 0)
(10.0184 -0.0116183 0)
(10.0228 -0.0125392 0)
(10.0271 -0.0133582 0)
(10.0314 -0.0141162 0)
(10.0354 -0.0148404 0)
(10.0393 -0.0155477 0)
(10.0431 -0.016248 0)
(10.0466 -0.0169463 0)
(10.0499 -0.017644 0)
(10.053 -0.0183406 0)
(10.0559 -0.0190335 0)
(10.0587 -0.0197175 0)
(10.0613 -0.0203781 0)
(10.0007 -0.00414784 0)
(10.0032 -0.00809771 0)
(10.0071 -0.0110607 0)
(10.0115 -0.0132563 0)
(10.0161 -0.0149354 0)
(10.0207 -0.0162532 0)
(10.0253 -0.0173177 0)
(10.0297 -0.0182119 0)
(10.034 -0.0189952 0)
(10.0381 -0.0197068 0)
(10.042 -0.0203727 0)
(10.0457 -0.0210092 0)
(10.0492 -0.0216265 0)
(10.0524 -0.0222306 0)
(10.0555 -0.0228248 0)
(10.0584 -0.0234103 0)
(10.0611 -0.0239853 0)
(10.0636 -0.0245403 0)
(10.0009 -0.00579339 0)
(10.0043 -0.0110102 0)
(10.009 -0.0146585 0)
(10.014 -0.0172461 0)
(10.019 -0.0191646 0)
(10.0239 -0.0206142 0)
(10.0287 -0.0217358 0)
(10.0333 -0.022638 0)
(10.0376 -0.0233955 0)
(10.0417 -0.0240568 0)
(10.0456 -0.0246538 0)
(10.0492 -0.0252074 0)
(10.0526 -0.0257311 0)
(10.0557 -0.026234 0)
(10.0587 -0.0267221 0)
(10.0615 -0.0271994 0)
(10.064 -0.0276674 0)
(10.0664 -0.0281217 0)
(10.0014 -0.00782566 0)
(10.0059 -0.0142958 0)
(10.0117 -0.0184184 0)
(10.0174 -0.0212176 0)
(10.0228 -0.023236 0)
(10.028 -0.0247028 0)
(10.0329 -0.0257903 0)
(10.0374 -0.026631 0)
(10.0417 -0.0273106 0)
(10.0457 -0.027883 0)
(10.0494 -0.0283832 0)
(10.0529 -0.0288343 0)
(10.0561 -0.0292513 0)
(10.0591 -0.0296443 0)
(10.0619 -0.0300206 0)
(10.0644 -0.0303863 0)
(10.0667 -0.0307459 0)
(10.069 -0.0311007 0)
(10.0021 -0.0104328 0)
(10.0083 -0.0180312 0)
(10.0153 -0.0223142 0)
(10.0216 -0.0251104 0)
(10.0272 -0.0270752 0)
(10.0325 -0.0284386 0)
(10.0373 -0.0294024 0)
(10.0417 -0.0301178 0)
(10.0458 -0.0306749 0)
(10.0495 -0.0311275 0)
(10.0529 -0.0315102 0)
(10.056 -0.0318452 0)
(10.0589 -0.0321469 0)
(10.0615 -0.0324246 0)
(10.064 -0.0326855 0)
(10.0662 -0.0329363 0)
(10.0682 -0.0331846 0)
(10.0701 -0.0334387 0)
(10.0033 -0.0138367 0)
(10.0117 -0.022208 0)
(10.0198 -0.0262193 0)
(10.0263 -0.0287761 0)
(10.0318 -0.0305342 0)
(10.0368 -0.031685 0)
(10.0412 -0.0324509 0)
(10.0451 -0.0329917 0)
(10.0486 -0.0333944 0)
(10.0518 -0.0337081 0)
(10.0547 -0.0339638 0)
(10.0573 -0.0341806 0)
(10.0597 -0.0343699 0)
(10.0618 -0.0345382 0)
(10.0638 -0.0346899 0)
(10.0655 -0.0348301 0)
(10.0671 -0.0349679 0)
(10.0685 -0.0351199 0)
(10.005 -0.0182938 0)
(10.0159 -0.0266563 0)
(10.0247 -0.0298639 0)
(10.0307 -0.0319607 0)
(10.0355 -0.0333802 0)
(10.0397 -0.0342353 0)
(10.0432 -0.0347596 0)
(10.0462 -0.0351086 0)
(10.0489 -0.0353546 0)
(10.0512 -0.0355348 0)
(10.0532 -0.0356724 0)
(10.0551 -0.0357817 0)
(10.0567 -0.0358698 0)
(10.0581 -0.0359393 0)
(10.0593 -0.0359901 0)
(10.0603 -0.0360221 0)
(10.0612 -0.0360417 0)
(10.0619 -0.0360704 0)
(10.0075 -0.0241236 0)
(10.0207 -0.031021 0)
(10.0287 -0.0328122 0)
(10.0331 -0.0343136 0)
(10.0363 -0.0353597 0)
(10.0389 -0.0359136 0)
(10.0409 -0.0362057 0)
(10.0424 -0.036379 0)
(10.0435 -0.0364861 0)
(10.0443 -0.0365497 0)
(10.0449 -0.0365846 0)
(10.0453 -0.0365998 0)
(10.0455 -0.0365989 0)
(10.0456 -0.0365807 0)
(10.0455 -0.0365398 0)
(10.0453 -0.036467 0)
(10.045 -0.0363575 0)
(10.0444 -0.0362201 0)
(10.0101 -0.0307446 0)
(10.0238 -0.0344057 0)
(10.0287 -0.0343598 0)
(10.0292 -0.0352336 0)
(10.0289 -0.0359346 0)
(10.0281 -0.0362209 0)
(10.0266 -0.0363036 0)
(10.0246 -0.0363094 0)
(10.0224 -0.0362745 0)
(10.0199 -0.0362121 0)
(10.0173 -0.0361323 0)
(10.0145 -0.0360416 0)
(10.0116 -0.0359414 0)
(10.0087 -0.0358281 0)
(10.0057 -0.0356909 0)
(10.0027 -0.0355076 0)
(9.99955 -0.0352441 0)
(9.99612 -0.0348366 0)
(10.0062 -0.0364074 0)
(10.0142 -0.037946 0)
(10.0067 -0.0361111 0)
(9.99424 -0.035974 0)
(9.98161 -0.035997 0)
(9.96878 -0.03579 0)
(9.95556 -0.0354936 0)
(9.94213 -0.0351941 0)
(9.92867 -0.0349041 0)
(9.91529 -0.0346211 0)
(9.90201 -0.0343445 0)
(9.88889 -0.0340738 0)
(9.87595 -0.0338065 0)
(9.86322 -0.033537 0)
(9.85072 -0.0332533 0)
(9.83848 -0.0329253 0)
(9.82654 -0.0324846 0)
(9.81435 -0.0315451 0)
(9.89292 -0.0248307 0)
(9.80337 -0.0270757 0)
(9.69906 -0.0264877 0)
(9.59607 -0.0263385 0)
(9.49955 -0.0261459 0)
(9.40857 -0.0257998 0)
(9.32225 -0.0253927 0)
(9.24037 -0.0249785 0)
(9.16275 -0.0245698 0)
(9.08917 -0.0241682 0)
(9.01942 -0.0237743 0)
(8.95326 -0.0233881 0)
(8.89052 -0.0230086 0)
(8.83101 -0.0226336 0)
(8.77457 -0.0222579 0)
(8.72109 -0.0218656 0)
(8.67064 -0.0214096 0)
(8.62171 -0.0205322 0)
(0.00276223 -0.00527933 0)
(0.00747146 -0.00819058 0)
(0.013792 -0.00884014 0)
(0.0194632 -0.00784674 0)
(0.0237235 -0.00595282 0)
(0.0262971 -0.00369244 0)
(0.0271013 -0.00135925 -3.59595e-19)
(0.0260679 0.000901875 3.46657e-19)
(0.0233582 0.00299722 0)
(0.0191076 0.00491608 3.35427e-19)
(0.0134645 0.00670031 0)
(0.00657688 0.00838578 0)
(-0.0016141 0.0099697 0)
(-0.0108476 0.0113521 -3.29532e-19)
(-0.0210463 0.0125503 0)
(-0.0321728 0.0136169 0)
(-0.0441412 0.0145746 2.79132e-19)
(-0.0568857 0.0154324 0)
(-0.0703474 0.0161965 0)
(-0.0844703 0.0168733 0)
(-0.0992018 0.0174701 -2.23558e-19)
(-0.114493 0.0179945 0)
(-0.1303 0.0184548 -2.00947e-19)
(-0.146584 0.018859 0)
(-0.163312 0.0192151 0)
(-0.180455 0.0195303 -1.72757e-19)
(-0.19799 0.019811 0)
(-0.215897 0.0200628 1.57191e-19)
(-0.234162 0.0202907 0)
(-0.252772 0.0204989 -1.43743e-19)
(-0.271717 0.0206907 0)
(-0.290988 0.0208694 0)
(-0.31058 0.0210373 0)
(-0.330485 0.0211967 0)
(-0.350702 0.0213492 0)
(-0.371225 0.021496 1.12911e-19)
(-0.392055 0.0216381 0)
(-0.413192 0.0217757 -2.09981e-19)
(-0.434636 0.0219089 0)
(-0.456392 0.0220372 1.95892e-19)
(-0.47846 0.0221593 0)
(-0.500842 0.0222738 0)
(-0.52354 0.0223781 -1.77484e-19)
(-0.546551 0.0224691 0)
(-0.569873 0.0225424 -1.66731e-19)
(-0.593501 0.022592 1.61746e-19)
(-0.617427 0.0226095 0)
(-0.641644 0.0225849 1.52467e-19)
(-0.666147 0.0225083 1.48137e-19)
(-0.690926 0.0223732 0)
(-0.715959 0.0221794 0)
(-0.741206 0.0219373 0)
(-0.766648 0.02168 0)
(-0.792338 0.0215009 0)
(-0.818388 0.0216191 -1.24953e-19)
(-0.844848 0.0224447 0)
(-0.871699 0.0231234 1.1819e-19)
(-0.898903 0.0231809 0)
(-0.926346 0.0232172 0)
(-0.95406 0.0232703 -1.09903e-19)
(-0.982059 0.0233302 0)
(-1.01035 0.0233889 1.04902e-19)
(-1.03892 0.0234421 0)
(-1.06777 0.023487 0)
(-1.09688 0.0235217 0)
(-1.12624 0.0235448 -9.59571e-20)
(-1.15584 0.0235551 0)
(-1.18567 0.0235515 0)
(-1.21569 0.0235332 -9.0051e-20)
(-1.24591 0.0234993 0)
(-1.27629 0.0234492 -8.64472e-20)
(-1.30682 0.0233822 0)
(-1.33748 0.0232979 0)
(-1.36824 0.0231957 0)
(-1.39907 0.0230749 7.99394e-20)
(-1.42996 0.0229346 0)
(-1.46086 0.0227742 0)
(-1.49177 0.0225928 7.55917e-20)
(-1.52264 0.0223901 7.4232e-20)
(-1.55344 0.022166 0)
(-1.58416 0.0219205 7.16342e-20)
(-1.61475 0.0216537 0)
(-1.64517 0.0213656 1.38371e-19)
(-1.6754 0.0210561 0)
(-1.70541 0.0207254 1.33741e-19)
(-1.73516 0.0203737 0)
(-1.76461 0.0200018 -1.29353e-19)
(-1.79375 0.0196105 0)
(-1.82253 0.0192012 0)
(-1.85093 0.0187751 0)
(-1.8789 0.0183338 1.212e-19)
(-1.90643 0.0178789 0)
(-1.93349 0.0174121 -1.17387e-19)
(-1.96005 0.0169358 0)
(-1.98611 0.0164526 1.13723e-19)
(-2.01163 0.0159652 1.11941e-19)
(-2.03661 0.0154771 1.1019e-19)
(-2.06104 0.0149916 0)
(-2.08491 0.0145126 0)
(-2.10823 0.014044 0)
(-2.13101 0.0135906 0)
(-2.15326 0.013157 0)
(-2.175 0.0127475 0)
(-2.19627 0.0123665 0)
(-2.2171 0.0120178 0)
(-2.23753 0.0117057 -9.55706e-20)
(-2.25762 0.011434 -9.40554e-20)
(-2.27741 0.0112067 0)
(-2.29699 0.0110274 0)
(-2.31642 0.0108994 0)
(-2.33577 0.0108258 -8.82039e-20)
(-2.35513 0.010809 0)
(-2.37457 0.0108504 0)
(-2.3942 0.0109505 0)
(-2.41411 0.0111088 0)
(-2.4344 0.0113241 8.1397e-20)
(-2.45515 0.0115949 0)
(-2.47647 0.0119185 0)
(-2.49844 0.0122915 -7.76235e-20)
(-2.52116 0.0127099 7.64224e-20)
(-2.5447 0.0131687 0)
(-2.56915 0.0136616 7.41085e-20)
(-2.59458 0.0141808 0)
(-2.62103 0.0147181 -7.19136e-20)
(-2.64856 0.0152652 0)
(-2.67718 0.0158134 0)
(-2.70692 0.0163534 0)
(-2.73778 0.0168747 0)
(-2.76974 0.0173662 0)
(-2.80275 0.0178166 1.31974e-19)
(-2.83676 0.0182147 1.30152e-19)
(-2.87166 0.0185483 0)
(-2.90735 0.0188056 0)
(-2.94368 0.0189745 0)
(-2.98048 0.0190427 -1.23056e-19)
(-3.01756 0.0189984 0)
(-3.05468 0.0188302 0)
(-3.09157 0.0185266 0)
(-3.12793 0.0180766 -1.15706e-19)
(-3.16345 0.017471 1.13715e-19)
(-3.19777 0.0167027 0)
(-3.23053 0.0157659 0)
(-3.2613 0.0146556 1.07049e-19)
(-3.28966 0.0133696 1.04514e-19)
(-3.31518 0.0119062 0)
(-3.33742 0.0102564 0)
(-3.35591 0.00840358 -9.55924e-20)
(-3.37014 0.00634385 9.20724e-20)
(-3.37956 0.00410553 0)
(-3.3837 0.00172609 0)
(-3.38217 -0.000792193 7.91212e-20)
(-3.37452 -0.00345995 0)
(-3.36033 -0.00627358 0)
(-3.33916 -0.00922721 6.19898e-20)
(-3.3106 -0.0123116 0)
(-3.27427 -0.0155169 4.77124e-20)
(-3.22979 -0.0188315 0)
(-3.17687 -0.0222391 0)
(-3.11524 -0.0257184 0)
(-3.0447 -0.0292476 -1.04286e-20)
(-2.96512 -0.032808 0)
(-2.87644 -0.0363776 0)
(-2.77867 -0.0399316 0)
(-2.67194 -0.043444 0)
(-2.55639 -0.0468942 0)
(-2.43232 -0.0502595 0)
(-2.30007 -0.0535094 9.47195e-20)
(-2.16008 -0.0566331 1.15563e-19)
(-2.01284 -0.0596146 0)
(-1.85893 -0.0624445 0)
(-1.69896 -0.0651147 0)
(-1.5336 -0.0675773 -2.21182e-19)
(-1.36355 -0.0697776 0)
(-1.18948 -0.0716911 5.84872e-19)
(-1.01218 -0.07327 -6.69073e-19)
(-0.83279 -0.0744856 -7.64048e-19)
(-0.652214 -0.0753122 8.71074e-19)
(-0.475224 -0.0737674 -9.93541e-19)
(-0.292168 -0.0713963 1.12683e-18)
(-0.169973 -0.0577013 0)
(0.00291779 -0.0154992 0)
(0.00714728 -0.0188935 0)
(0.0100125 -0.0169559 4.87296e-19)
(0.0114906 -0.0130203 0)
(0.0114806 -0.00814223 -3.52235e-19)
(0.00997985 -0.00286923 -3.28641e-19)
(0.00699597 0.00246563 -1.56375e-19)
(0.00269089 0.00755848 -1.50619e-19)
(-0.00295087 0.0122732 0)
(-0.00978447 0.0164842 -1.37388e-19)
(-0.0177532 0.0202475 0)
(-0.0267579 0.0236219 0)
(-0.0367046 0.0266309 2.365e-19)
(-0.0474988 0.0292926 1.12436e-19)
(-0.0590713 0.0316561 -2.13681e-19)
(-0.0713571 0.033765 -2.03157e-19)
(-0.0842916 0.0356489 -9.66596e-20)
(-0.0978172 0.0373304 0)
(-0.111883 0.038828 0)
(-0.126446 0.0401586 0)
(-0.141466 0.0413383 -7.96677e-20)
(-0.15691 0.0423831 0)
(-0.17275 0.0433085 2.18714e-19)
(-0.188961 0.0441293 0)
(-0.205523 0.0448597 0)
(-0.222421 0.0455125 6.43808e-20)
(-0.239641 0.0460997 0)
(-0.257174 0.0466316 -5.96142e-20)
(-0.275011 0.0471176 -1.1483e-19)
(-0.293148 0.0475655 5.54653e-20)
(-0.31158 0.0479822 0)
(-0.330303 0.0483734 0)
(-0.349316 0.048744 0)
(-0.368616 0.0490981 -9.71738e-20)
(-0.388204 0.0494388 -9.42638e-20)
(-0.408077 0.0497689 -4.58186e-20)
(-0.428239 0.0500902 0)
(-0.448689 0.050404 8.66076e-20)
(-0.469431 0.0507114 0)
(-0.490466 0.0510126 -8.2105e-20)
(-0.511799 0.0513076 0)
(-0.533431 0.0515964 0)
(-0.555365 0.0518784 7.61803e-20)
(-0.577602 0.0521532 0)
(-0.600144 0.0524208 2.17872e-19)
(-0.622992 0.0526808 -7.10937e-20)
(-0.646148 0.052933 0)
(-0.669614 0.0531768 -6.81062e-20)
(-0.693396 0.053411 -6.67217e-20)
(-0.717501 0.0536359 0)
(-0.74194 0.0538524 0)
(-0.76672 0.05406 0)
(-0.791854 0.0542511 0)
(-0.817341 0.054412 0)
(-0.843144 0.05454 5.94946e-20)
(-0.869174 0.0546618 1.16335e-19)
(-0.895403 0.0547862 -5.70648e-20)
(-0.921905 0.0548903 0)
(-0.94872 0.0549964 1.09139e-19)
(-0.975828 0.0551061 -5.33057e-20)
(-1.00321 0.0552107 0)
(-1.03086 0.0553024 -5.13798e-20)
(-1.05875 0.0553752 0)
(-1.08689 0.055425 0)
(-1.11526 0.0554484 -9.64029e-20)
(-1.14385 0.0554428 4.73673e-20)
(-1.17263 0.055406 -9.26062e-20)
(-1.2016 0.0553359 9.0784e-20)
(-1.23074 0.0552307 4.46328e-20)
(-1.26002 0.0550888 0)
(-1.28944 0.054909 4.29284e-20)
(-1.31897 0.0546899 0)
(-1.3486 0.0544305 0)
(-1.37829 0.0541299 0)
(-1.40802 0.053787 3.95286e-20)
(-1.43778 0.0534007 0)
(-1.46753 0.0529699 7.63966e-20)
(-1.49725 0.0524938 -1.12617e-19)
(-1.52692 0.0519718 -3.69367e-20)
(-1.5565 0.0514037 0)
(-1.58596 0.0507899 -3.56187e-20)
(-1.61529 0.0501306 0)
(-1.64445 0.0494262 -6.8725e-20)
(-1.6734 0.0486774 0)
(-1.70212 0.0478849 -6.63267e-20)
(-1.73058 0.0470498 1.2989e-19)
(-1.75876 0.0461737 6.40337e-20)
(-1.78662 0.0452589 0)
(-1.81414 0.0443078 0)
(-1.84129 0.0433234 0)
(-1.86804 0.0423093 -5.97309e-20)
(-1.89438 0.0412689 0)
(-1.92027 0.0402064 5.77054e-20)
(-1.94571 0.0391263 0)
(-1.97068 0.0380338 -1.66893e-19)
(-1.99516 0.0369348 -5.48079e-20)
(-2.01915 0.0358358 -5.38773e-20)
(-2.04264 0.034744 0)
(-2.06563 0.0336668 0)
(-2.08813 0.0326126 0)
(-2.11016 0.0315896 0)
(-2.13172 0.0306066 0)
(-2.15285 0.0296722 -9.69584e-20)
(-2.17356 0.0287951 -9.53301e-20)
(-2.19391 0.0279833 0)
(-2.21393 0.0272446 4.62379e-20)
(-2.23366 0.0265868 4.54718e-20)
(-2.25318 0.0260166 0)
(-2.27253 0.0255408 8.76853e-20)
(-2.29179 0.0251653 0)
(-2.31102 0.0248955 -4.22867e-20)
(-2.3303 0.0247355 0)
(-2.34972 0.0246879 0)
(-2.36936 0.0247535 8.09574e-20)
(-2.38929 0.0249315 0)
(-2.40962 0.0252201 -3.94409e-20)
(-2.43043 0.0256164 0)
(-2.45179 0.0261159 0)
(-2.4738 0.0267122 -3.74755e-20)
(-2.49652 0.0273972 -3.73299e-20)
(-2.52004 0.0281612 0)
(-2.5444 0.0289924 3.60451e-20)
(-2.56968 0.029877 0)
(-2.59591 0.0307998 -3.52091e-20)
(-2.62312 0.0317445 -7.00448e-20)
(-2.65134 0.032694 0)
(-2.68055 0.0336296 0)
(-2.71074 0.0345307 0)
(-2.74188 0.0353755 0)
(-2.77391 0.0361413 -6.72251e-20)
(-2.80675 0.0368047 -1.99175e-19)
(-2.84029 0.0373412 0)
(-2.87439 0.0377255 0)
(-2.9089 0.0379318 0)
(-2.94363 0.0379344 6.44995e-20)
(-2.97838 0.037708 0)
(-3.01288 0.0372279 0)
(-3.04686 0.0364698 -1.24794e-19)
(-3.08001 0.035411 -6.14461e-20)
(-3.11201 0.0340315 -6.13055e-20)
(-3.1425 0.0323148 0)
(-3.17109 0.0302466 0)
(-3.19735 0.0278166 -5.85835e-20)
(-3.22087 0.0250206 5.72107e-20)
(-3.24121 0.021858 0)
(-3.25794 0.0183179 0)
(-3.2706 0.014377 5.31824e-20)
(-3.27866 0.0100294 -1.54357e-19)
(-3.28157 0.00532125 0)
(-3.27905 0.000313128 0)
(-3.27066 -0.00497806 -4.44132e-20)
(-3.256 -0.0105532 0)
(-3.23464 -0.0163999 -7.74742e-20)
(-3.2062 -0.0224989 3.57532e-20)
(-3.17028 -0.0288238 0)
(-3.12654 -0.0353432 -2.67501e-20)
(-3.07464 -0.0420221 -4.56238e-20)
(-3.01431 -0.0488176 0)
(-2.94532 -0.0556776 0)
(-2.86749 -0.0625446 5.77087e-21)
(-2.78074 -0.0693638 0)
(-2.68501 -0.0760826 1.27543e-20)
(-2.58035 -0.0826395 0)
(-2.46689 -0.0889662 0)
(-2.34482 -0.0950122 0)
(-2.21443 -0.100731 0)
(-2.07609 -0.106049 -4.94523e-20)
(-1.93023 -0.110934 -5.95533e-20)
(-1.77737 -0.115347 0)
(-1.61808 -0.119253 0)
(-1.45298 -0.122646 0)
(-1.28274 -0.125474 1.06553e-19)
(-1.10804 -0.127688 0)
(-0.92961 -0.129319 -2.69612e-19)
(-0.748199 -0.130327 3.00847e-19)
(-0.564939 -0.130727 3.34655e-19)
(-0.380366 -0.130658 3.63093e-19)
(-0.198994 -0.127838 4.09936e-19)
(-0.0092022 -0.121554 4.31268e-19)
(0.137431 -0.104269 0)
(0.00142176 -0.0236947 0)
(0.00280551 -0.0235378 0)
(0.00227202 -0.0177716 -3.67048e-19)
(0.000348616 -0.0104553 -2.94253e-19)
(-0.00291665 -0.00258015 2.53787e-19)
(-0.00736072 0.00536057 2.26352e-19)
(-0.0127731 0.0130005 2.84489e-23)
(-0.0190965 0.0201711 0)
(-0.0262727 0.0267804 0)
(-0.0342642 0.0327887 0)
(-0.0430422 0.0382084 0)
(-0.0525601 0.0430707 0)
(-0.0627664 0.0474132 -4.33425e-19)
(-0.073613 0.051277 0)
(-0.0850549 0.054709 1.31296e-19)
(-0.0970469 0.0577551 1.25344e-19)
(-0.109546 0.0604571 0)
(-0.122512 0.0628522 0)
(-0.13591 0.0649735 0)
(-0.149712 0.0668512 0)
(-0.163892 0.0685134 1.00893e-19)
(-0.178429 0.0699858 0)
(-0.193307 0.0712929 -9.32385e-20)
(-0.208511 0.0724568 0)
(-0.22403 0.0734982 0)
(-0.239855 0.0744353 0)
(-0.255982 0.0752847 -1.61484e-19)
(-0.272404 0.0760608 0)
(-0.289118 0.0767763 7.57262e-20)
(-0.306124 0.0774419 -1.4678e-19)
(-0.323419 0.0780668 0)
(-0.341002 0.0786588 0)
(-0.358874 0.0792242 0)
(-0.377033 0.079768 6.55936e-20)
(-0.395481 0.0802945 6.39103e-20)
(-0.414217 0.0808066 0)
(-0.433243 0.0813066 0)
(-0.452561 0.0817961 -1.18676e-19)
(-0.472173 0.0822757 -1.15966e-19)
(-0.492082 0.0827458 1.13389e-19)
(-0.512291 0.0832065 0)
(-0.532803 0.0836571 0)
(-0.553621 0.0840971 0)
(-0.574747 0.0845257 0)
(-0.596183 0.0849421 -1.02253e-19)
(-0.61793 0.0853457 -1.00169e-19)
(-0.639989 0.0857356 9.82667e-20)
(-0.662363 0.0861111 0)
(-0.685053 0.0864713 0)
(-0.708062 0.0868159 0)
(-0.731391 0.0871458 0)
(-0.755046 0.087463 -8.96131e-20)
(-0.779029 0.0877717 0)
(-0.803341 0.0880794 0)
(-0.827963 0.0883935 -8.48019e-20)
(-0.852854 0.0887065 -8.3313e-20)
(-0.877988 0.0889747 0)
(-0.903378 0.0891841 1.59953e-19)
(-0.92904 0.0893576 -7.85316e-20)
(-0.954967 0.0895033 7.70007e-20)
(-0.981149 0.0896209 0)
(-1.00758 0.0897065 0)
(-1.03424 0.0897556 0)
(-1.06112 0.0897638 0)
(-1.08822 0.0897275 6.98427e-20)
(-1.1155 0.089643 1.36766e-19)
(-1.14297 0.0895072 6.71973e-20)
(-1.17061 0.0893174 -6.59182e-20)
(-1.19839 0.0890709 0)
(-1.22631 0.0887654 1.26646e-19)
(-1.25433 0.088399 1.24254e-19)
(-1.28246 0.08797 1.21914e-19)
(-1.31065 0.0874769 -1.19626e-19)
(-1.3389 0.0869182 0)
(-1.36718 0.0862926 -1.72917e-19)
(-1.39546 0.0855986 0)
(-1.42372 0.0848352 5.53627e-20)
(-1.45194 0.0840014 5.45711e-20)
(-1.4801 0.0830969 0)
(-1.50816 0.0821219 0)
(-1.5361 0.0810766 1.03012e-19)
(-1.5639 0.0799619 0)
(-1.59152 0.0787787 9.9282e-20)
(-1.61893 0.0775283 0)
(-1.64612 0.0762123 -9.57011e-20)
(-1.67305 0.074833 -1.88142e-19)
(-1.6997 0.0733936 0)
(-1.72604 0.0718975 0)
(-1.75204 0.0703492 0)
(-1.77769 0.0687537 -8.73466e-20)
(-1.80296 0.0671166 0)
(-1.82783 0.0654439 -8.42234e-20)
(-1.85228 0.0637424 0)
(-1.87628 0.0620196 0)
(-1.89985 0.0602839 1.59693e-19)
(-1.92295 0.0585446 0)
(-1.94558 0.0568123 7.69114e-20)
(-1.96775 0.055098 0)
(-1.98945 0.0534137 7.41766e-20)
(-2.0107 0.0517717 0)
(-2.03149 0.0501849 0)
(-2.05186 0.0486663 0)
(-2.07182 0.0472291 2.07253e-19)
(-2.09141 0.0458864 6.7977e-20)
(-2.11065 0.0446505 0)
(-2.1296 0.0435336 0)
(-2.14829 0.0425466 0)
(-2.16678 0.0417 0)
(-2.18513 0.0410032 -6.23214e-20)
(-2.20341 0.0404648 1.22231e-19)
(-2.22167 0.040092 6.02806e-20)
(-2.23999 0.0398901 -1.18277e-19)
(-2.25845 0.0398618 -1.16403e-19)
(-2.27713 0.0400077 -5.74775e-20)
(-2.29609 0.040326 0)
(-2.31543 0.0408134 -1.11217e-19)
(-2.33522 0.0414644 0)
(-2.35555 0.0422707 1.08138e-19)
(-2.37647 0.0432215 5.35497e-20)
(-2.39807 0.0443032 0)
(-2.42041 0.045499 -1.04105e-19)
(-2.44355 0.0467897 -5.16587e-20)
(-2.46752 0.0481529 0)
(-2.49237 0.0495647 -5.01807e-20)
(-2.51813 0.0509988 1.49915e-19)
(-2.54479 0.052427 0)
(-2.57236 0.0538186 0)
(-2.60081 0.0551405 0)
(-2.6301 0.0563576 0)
(-2.66016 0.057434 9.59352e-20)
(-2.69091 0.0583318 9.5691e-20)
(-2.72223 0.0590117 0)
(-2.754 0.0594331 0)
(-2.78604 0.0595549 0)
(-2.81817 0.0593363 0)
(-2.85016 0.0587371 0)
(-2.88178 0.0577181 0)
(-2.91274 0.0562415 9.12732e-20)
(-2.94274 0.0542718 1.86987e-22)
(-2.97144 0.0517783 0)
(-2.99849 0.048735 0)
(-3.02351 0.04512 8.73704e-20)
(-3.04609 0.0409175 0)
(-3.06578 0.0361211 -8.4617e-20)
(-3.08218 0.0307272 -8.30195e-20)
(-3.09485 0.024719 0)
(-3.10335 0.0180752 0)
(-3.10711 0.0108203 7.62237e-20)
(-3.10573 0.00304138 1.47179e-19)
(-3.09891 -0.00519378 0)
(-3.08624 -0.0138767 0)
(-3.06732 -0.0229987 0)
(-3.04176 -0.0325363 5.71609e-20)
(-3.00917 -0.0424563 -5.20178e-20)
(-2.96919 -0.0527151 0)
(-2.92148 -0.0632593 -8.21831e-20)
(-2.86573 -0.0740282 -3.542e-20)
(-2.80168 -0.08495 5.44201e-20)
(-2.7291 -0.0959403 0)
(-2.64786 -0.106905 0)
(-2.55785 -0.117752 3.72617e-21)
(-2.45905 -0.128396 -9.23745e-21)
(-2.3515 -0.13874 0)
(-2.23531 -0.148666 0)
(-2.11071 -0.158091 0)
(-1.97796 -0.166947 0)
(-1.83741 -0.175117 -1.33164e-19)
(-1.6895 -0.182541 0)
(-1.53469 -0.189164 0)
(-1.37355 -0.19491 0)
(-1.20664 -0.19977 0)
(-1.03457 -0.203698 0)
(-0.857971 -0.20667 0)
(-0.677514 -0.208812 -3.59522e-19)
(-0.493838 -0.21007 0)
(-0.307722 -0.210449 0)
(-0.120188 -0.209345 -9.69791e-19)
(0.0654233 -0.204189 5.13205e-19)
(0.251908 -0.194299 -5.33427e-19)
(0.409281 -0.174308 5.53858e-19)
(-0.00066189 -0.0247447 0)
(-0.00222241 -0.0206166 9.34796e-19)
(-0.00569925 -0.011758 0)
(-0.0104031 -0.00192435 2.35892e-19)
(-0.0160078 0.00798712 0)
(-0.0222751 0.0175475 0)
(-0.0291427 0.026606 -1.55142e-19)
(-0.036568 0.035079 0)
(-0.0445277 0.0429142 0)
(-0.0530107 0.050088 0)
(-0.0620081 0.0566049 0)
(-0.0715058 0.0624875 0)
(-0.0814864 0.06777 4.21421e-19)
(-0.0919303 0.0724945 2.00841e-19)
(-0.102816 0.0767076 -1.91853e-19)
(-0.114122 0.0804575 0)
(-0.125825 0.0837911 0)
(-0.137903 0.0867533 0)
(-0.150338 0.0893857 0)
(-0.163114 0.0917269 0)
(-0.176215 0.0938125 1.50496e-19)
(-0.189632 0.0956753 1.45194e-19)
(-0.203355 0.0973451 -1.40252e-19)
(-0.217377 0.0988489 1.35641e-19)
(-0.231693 0.100211 0)
(-0.246299 0.101453 0)
(-0.261192 0.102594 1.23587e-19)
(-0.276371 0.10365 0)
(-0.291835 0.104636 0)
(-0.307583 0.105564 1.13643e-19)
(-0.323615 0.106444 1.10675e-19)
(-0.339932 0.107285 1.0792e-19)
(-0.356532 0.108094 0)
(-0.373417 0.108878 0)
(-0.390587 0.10964 -1.00536e-19)
(-0.408042 0.110384 0)
(-0.425784 0.111114 0)
(-0.443815 0.11183 9.42819e-20)
(-0.462137 0.112534 -9.22819e-20)
(-0.480753 0.113227 9.046e-20)
(-0.499665 0.113908 0)
(-0.518877 0.114577 0)
(-0.53839 0.115233 1.70949e-19)
(-0.558207 0.115877 0)
(-0.578329 0.116506 1.64828e-19)
(-0.598757 0.11712 2.42916e-19)
(-0.619492 0.117717 -2.38664e-19)
(-0.640535 0.118296 1.56312e-19)
(-0.661886 0.118856 0)
(-0.683544 0.119392 0)
(-0.705508 0.119903 1.48351e-19)
(-0.727778 0.120385 7.29418e-20)
(-0.750349 0.120838 0)
(-0.773219 0.121261 0)
(-0.796376 0.121659 6.91462e-20)
(-0.819803 0.122029 1.35677e-19)
(-0.843489 0.122359 0)
(-0.867432 0.122643 -1.30875e-19)
(-0.891631 0.122885 1.2836e-19)
(-0.916079 0.123085 -1.26006e-19)
(-0.940767 0.123239 0)
(-0.965683 0.123344 0)
(-0.990818 0.123394 0)
(-1.01616 0.123386 0)
(-1.04169 0.123314 0)
(-1.0674 0.123175 -1.12865e-19)