/*--------------------------------*- C++ -*----------------------------------*\
| =========                 |                                                 |
| \\      /  F ield         | OpenFOAM: The Open Source CFD Toolbox           |
|  \\    /   O peration     | Version:  1.4.2                                 |
|   \\  /    A nd           | Web:      http://www.openfoam.org               |
|    \\/     M anipulation  |                                                 |
\*---------------------------------------------------------------------------*/
FoamFile
{
    version     2.0;
    format      ascii;
    class       volScalarField;
    object      epsilon;
    location    "950";
}
// * * * * * * * * * * * * * * * * * * * * * * * * * * * * * * * * * * * * * //

dimensions      [0 2 -3 0 0 0 0];

internalField   nonuniform List<scalar> 
12225
(
443.026
353.452
290.586
245.345
212.188
187.594
169.245
155.572
145.485
138.21
133.183
129.985
128.3
127.881
128.529
130.083
132.409
135.67
60.1656
73.6156
79.568
83.6951
87.7142
92.3539
97.9686
104.74
112.766
122.099
132.759
144.737
157.998
172.478
188.08
204.668
221.995
240.13
26.2958
33.7101
37.845
40.6833
42.9299
44.9526
46.9639
49.0917
51.4156
53.9865
56.8363
59.983
63.4329
67.1799
71.2034
75.4599
79.8598
84.24
18.7355
22.7235
25.4806
27.3758
28.8178
30.0126
31.0724
32.0707
33.0568
34.0634
35.1122
36.2166
37.384
38.616
39.909
41.2522
42.6259
43.9858
16.1687
18.1634
19.9326
21.292
22.3446
23.1852
23.8877
24.5055
25.0724
25.6103
26.1342
26.6543
27.1774
27.7072
28.245
28.7895
29.3368
29.868
15.2354
16.0864
17.0484
17.9368
18.6891
19.3116
19.8309
20.2729
20.659
21.0059
21.3259
21.6276
21.9172
22.1985
22.474
22.7447
23.0099
23.259
14.8942
15.17
15.5864
16.0521
16.5062
16.9217
17.2896
17.61
17.8892
18.1348
18.3542
18.5533
18.7368
18.9084
19.0708
19.2254
19.3723
19.5054
14.7876
14.838
14.9915
15.2092
15.4537
15.7009
15.9368
16.1542
16.351
16.5276
16.6861
16.8291
16.959
17.0782
17.1887
17.2919
17.3884
17.4747
14.7441
14.6884
14.7003
14.7662
14.8675
14.9882
15.1163
15.2439
15.3661
15.4805
15.586
15.6827
15.7712
15.8523
15.9269
15.996
16.0601
16.1177
14.7239
14.6134
14.5425
14.5091
14.5063
14.5261
14.5613
14.6058
14.655
14.7057
14.7557
14.8038
14.8493
14.8918
14.9314
14.9682
15.0023
15.0329
14.7149
14.579
14.4658
14.3758
14.3077
14.2585
14.2249
14.2034
14.191
14.1852
14.184
14.1858
14.1895
14.1942
14.1995
14.2049
14.2103
14.2149
14.7109
14.5642
14.4319
14.3142
14.2111
14.1218
14.0449
13.9791
13.9228
13.8744
13.8327
13.7964
13.7645
13.7363
13.711
13.6881
13.6673
13.6482
14.7089
14.5577
14.4176
14.2882
14.1691
14.0601
13.9606
13.8699
13.7873
13.7122
13.6436
13.581
13.5236
13.4708
13.422
13.3769
13.3351
13.2966
14.7076
14.5544
14.4112
14.2772
14.1518
14.0345
13.925
13.8227
13.7273
13.6382
13.5551
13.4774
13.4048
13.3369
13.2732
13.2134
13.1574
13.1055
14.7067
14.5523
14.4076
14.2717
14.1439
14.0235
13.9101
13.8033
13.7025
13.6074
13.5177
13.4331
13.3531
13.2775
13.206
13.1383
13.0744
13.015
14.706
14.5507
14.4052
14.2684
14.1394
14.0178
13.9029
13.7943
13.6915
13.5941
13.5018
13.4143
13.3313
13.2524
13.1775
13.1064
13.0389
12.976
14.7055
14.5497
14.4036
14.2662
14.1367
14.0144
13.8988
13.7894
13.6857
13.5874
13.4941
13.4054
13.3212
13.241
13.1648
13.0923
13.0234
12.9591
14.7053
14.5494
14.403
14.2654
14.1356
14.013
13.8971
13.7873
13.6833
13.5846
13.4909
13.4019
13.3173
13.2369
13.1603
13.0875
13.0184
12.9539
14.7055
14.5497
14.4035
14.2659
14.1362
14.0138
13.8981
13.7886
13.685
13.5868
13.4937
13.4054
13.3216
13.2421
13.1665
13.0948
13.0269
12.9637
14.706
14.5507
14.4051
14.2683
14.1396
14.0185
13.9045
13.7971
13.6959
13.6006
13.5107
13.4259
13.346
13.2705
13.1992
13.1318
13.0683
13.0095
14.7068
14.5528
14.4093
14.2755
14.1509
14.0353
13.9279
13.8284
13.7361
13.6504
13.5708
13.4968
13.4279
13.3635
13.3034
13.2471
13.1944
13.146
14.7086
14.5589
14.4227
14.3001
14.1905
14.0931
14.0068
13.9303
13.8623
13.8016
13.747
13.6976
13.6526
13.6113
13.5731
13.5376
13.5045
13.4743
14.7142
14.5802
14.4708
14.3853
14.3209
14.2739
14.2405
14.2172
14.2011
14.1898
14.1815
14.175
14.1693
14.1638
14.1581
14.1519
14.1451
14.1383
14.7358
14.6588
14.6349
14.6534
14.7004
14.7639
14.8349
14.9068
14.9754
15.0384
15.0944
15.1432
15.1847
15.2195
15.2482
15.2714
15.2898
15.3046
14.8205
14.9298
15.138
15.3947
15.6602
15.9123
16.14
16.3384
16.5073
16.6492
16.7675
16.8658
16.9471
17.0143
17.0699
17.1159
17.154
17.1857
15.1412
15.7855
16.517
17.2068
17.7961
18.2813
18.6742
18.9897
19.2424
19.4453
19.6092
19.7427
19.8526
19.9443
20.0219
20.0885
20.1465
20.1979
16.3189
18.2995
19.9621
21.2351
22.1813
22.8822
23.4044
23.7998
24.1051
24.3458
24.5398
24.7003
24.8371
24.9575
25.0667
25.1689
25.2667
25.3619
20.7544
25.6375
28.6922
30.5982
31.8393
32.6632
33.2222
33.6187
33.9177
34.1615
34.3775
34.5835
34.791
35.0075
35.237
35.4821
35.7433
36.0198
43.9611
54.4815
58.7074
60.4208
60.9764
60.9916
60.8477
60.7577
60.7887
60.97
61.3106
61.8089
62.4576
63.2465
64.164
65.1977
66.3328
67.5618
332.626
280.253
240.732
210.192
186.153
166.94
151.386
138.653
128.129
119.361
112.006
105.799
100.536
96.0549
92.2271
88.9494
86.1385
83.7249
0.00471706
0.00568123
0.00780764
0.0103917
0.0131177
0.0158074
0.0183819
0.0208202
0.0231377
0.0253849
0.0276545
0.0300774
0.032795
0.0359717
0.039743
0.0441398
0.0492602
0.0552458
0.0622477
0.0703424
0.0796081
0.0900903
0.101879
0.115169
0.130335
0.147865
0.168203
0.190992
0.216883
0.246334
0.279758
0.317555
0.360131
0.4079
0.461291
0.520754
0.586763
0.659822
0.740467
0.829272
0.92685
1.03386
1.15099
1.27902
1.41873
1.57099
1.73674
1.91695
2.1127
2.32514
2.55549
2.8051
3.0754
3.36799
3.68459
4.02711
4.39769
4.79871
5.23289
5.70336
6.21375
6.76834
7.37223
8.03161
8.75399
9.5487
10.4274
11.4048
12.4998
13.7371
15.15
16.7842
18.706
21.0149
23.8674
27.515
32.3639
39.0579
41.9126
44.7923
47.8246
51.0195
54.3831
57.921
61.6386
65.5412
69.6338
73.9213
78.4083
83.0989
87.9972
93.1068
98.4308
103.972
109.734
115.717
121.923
128.355
135.011
141.893
149
156.331
163.884
171.657
179.647
187.849
196.259
204.869
213.671
222.657
231.815
241.132
250.594
260.184
269.883
279.672
289.529
299.432
309.359
319.289
329.203
339.085
348.93
358.747
368.579
378.305
387.886
397.309
406.57
415.664
424.588
433.339
441.917
450.321
458.552
466.613
474.507
482.238
489.81
497.228
504.499
511.627
518.617
525.475
532.205
538.809
545.29
551.649
557.886
563.999
569.986
575.841
581.555
587.117
592.514
597.729
602.741
607.528
612.063
616.317
620.254
623.837
627.022
629.763
632.008
633.704
634.789
635.199
634.865
633.716
631.672
628.665
624.609
619.502
613.329
606.47
599.576
591.693
582.642
568.033
0.0131877
0.0120548
0.0128084
0.0140334
0.0153756
0.0167562
0.0181771
0.019672
0.0212966
0.0231318
0.0252964
0.0279186
0.0311134
0.0349691
0.0395793
0.0450649
0.0515728
0.0592586
0.0683304
0.0790675
0.0918983
0.106672
0.123628
0.143074
0.165298
0.190563
0.219095
0.25107
0.286725
0.326297
0.370015
0.418114
0.470831
0.528415
0.591129
0.659255
0.7331
0.812994
0.899302
0.992416
1.09277
1.20082
1.31708
1.44211
1.57648
1.72085
1.87591
2.0424
2.22114
2.41299
2.61891
2.83992
3.07715
3.33182
3.60528
3.89902
4.21467
4.55409
4.91931
5.31268
5.73681
6.19472
6.68984
7.22614
7.80819
8.44132
9.13169
9.88651
10.7141
11.6242
12.628
13.7381
14.9682
16.3317
17.8384
19.4861
21.2424
23.007
24.5348
26.0843
27.7035
29.401
31.1803
33.0436
34.9932
37.0312
39.1596
41.3803
43.695
46.1054
48.6128
51.2187
53.9241
56.73
59.6371
62.646
65.7568
68.9698
72.2847
75.7009
79.2179
82.8344
86.5491
90.3602
94.2654
98.2622
102.347
106.517
110.768
115.094
119.49
123.951
128.469
133.038
137.65
142.298
146.972
151.665
156.369
161.079
165.788
170.495
175.201
179.927
184.638
189.3
193.901
198.437
202.904
207.301
211.625
215.876
220.051
224.151
228.176
232.126
236.003
239.807
243.539
247.203
250.798
254.329
257.795
261.199
264.543
267.827
271.053
274.221
277.33
280.381
283.373
286.302
289.167
291.962
294.684
297.326
299.88
302.337
304.688
306.92
309.021
310.974
312.764
314.37
315.771
316.946
317.869
318.512
318.846
318.84
318.461
317.677
316.458
314.797
312.707
310.321
307.814
304.968
301.925
299.78
0.0243669
0.0204539
0.0200707
0.0206397
0.0215822
0.022775
0.0242234
0.0259843
0.0281574
0.0308374
0.0341269
0.0381762
0.0430294
0.0487971
0.0556493
0.0638094
0.0735222
0.0847973
0.0978751
0.112987
0.130342
0.150089
0.172397
0.197447
0.225429
0.256536
0.290963
0.328904
0.370559
0.41614
0.465866
0.519969
0.578691
0.64229
0.711043
0.785248
0.865228
0.951335
1.04395
1.14349
1.2504
1.36517
1.48832
1.62041
1.76206
1.91392
2.07669
2.25112
2.43803
2.63828
2.85282
3.08267
3.32892
3.59277
3.87549
4.1785
4.50333
4.85166
5.22532
5.62633
6.0569
6.51947
7.0167
7.55154
8.12719
8.74712
9.41509
10.1351
10.9112
11.7475
12.6479
13.6156
14.6524
15.7579
16.9279
18.1528
19.4166
20.699
21.9875
23.3198
24.711
26.1665
27.6889
29.2801
30.9419
32.6758
34.4835
36.3664
38.3257
40.3627
42.4785
44.674
46.95
49.3071
51.7456
54.266
56.8682
59.5521
62.3173
65.1631
68.0888
71.0931
74.1748
77.332
80.5628
83.8648
87.2354
90.6715
94.1697
97.7262
101.337
104.997
108.701
112.445
116.223
120.028
123.855
127.698
131.552
135.411
139.272
143.131
146.989
150.841
154.665
158.444
162.171
165.842
169.454
173.003
176.488
179.906
183.256
186.536
189.747
192.886
195.955
198.952
201.878
204.734
207.52
210.236
212.884
215.464
217.976
220.421
222.8
225.112
227.358
229.537
231.65
233.695
235.67
237.575
239.407
241.163
242.838
244.429
245.93
247.335
248.637
249.829
250.899
251.838
252.634
253.273
253.741
254.021
254.096
253.948
253.556
252.902
251.971
250.759
249.283
247.616
245.843
243.938
242.153
241.661
0.0409762
0.0312308
0.0289978
0.0288997
0.0297356
0.0311959
0.0332551
0.0359145
0.0392094
0.0432457
0.0481714
0.0540152
0.0608903
0.0689252
0.0783059
0.0892224
0.101856
0.116365
0.132917
0.151675
0.172791
0.196407
0.222662
0.251706
0.283703
0.318834
0.357291
0.399278
0.445008
0.494708
0.548621
0.607002
0.670123
0.738276
0.811773
0.890948
0.976163
1.06781
1.1663
1.27209
1.38566
1.50753
1.63826
1.77844
1.92872
2.08977
2.26233
2.44717
2.64513
2.85711
3.08406
3.32701
3.58705
3.86537
4.16322
4.48198
4.82309
5.18812
5.57874
5.99676
6.44409
6.92278
7.43498
7.98296
8.5691
9.19582
9.86556
10.5807
11.3435
12.156
13.0195
13.9351
14.9025
15.9206
16.9869
18.098
19.2503
20.4417
21.6755
22.9611
24.3048
25.7099
27.1786
28.7127
30.3139
31.9838
33.7239
35.5354
37.4197
39.378
41.4112
43.5201
45.7057
47.9682
50.3082
52.7258
55.221
57.7935
60.443
63.1686
65.9695
68.8446
71.7923
74.811
77.8988
81.0534
84.2723
87.5527
90.8916
94.2855
97.7307
101.223
104.758
108.332
111.938
115.572
119.229
122.902
126.587
130.277
133.969
137.657
141.337
144.997
148.62
152.196
155.717
159.179
162.578
165.91
169.172
172.362
175.477
178.514
181.473
184.351
187.148
189.862
192.492
195.038
197.499
199.876
202.168
204.376
206.499
208.538
210.493
212.364
214.152
215.857
217.478
219.018
220.474
221.848
223.139
224.345
225.467
226.501
227.447
228.302
229.063
229.725
230.285
230.736
231.071
231.283
231.365
231.304
231.092
230.715
230.163
229.423
228.488
227.358
226.051
224.616
223.11
221.579
220.286
220.111
0.0632643
0.0444409
0.0397623
0.0390645
0.0400849
0.0421502
0.0450607
0.0487985
0.0534061
0.0589455
0.0653955
0.0729007
0.0816122
0.0916871
0.103289
0.11658
0.131716
0.148842
0.168098
0.189612
0.213513
0.239927
0.26899
0.30085
0.335671
0.373639
0.414954
0.459834
0.508512
0.561235
0.618269
0.679897
0.746422
0.818166
0.895474
0.978715
1.06829
1.16461
1.26813
1.37935
1.49876
1.62693
1.76444
1.91192
2.07003
2.23948
2.42104
2.6155
2.82373
3.04664
3.2852
3.54045
3.81349
4.1055
4.41772
4.75148
5.10817
5.48929
5.89638
6.33111
6.79519
7.2904
7.81861
8.38169
8.98156
9.62012
10.2992
11.0206
11.7858
12.5963
13.453
14.3567
15.3078
16.306
17.3514
18.4437
19.5833
20.772
22.013
23.3106
24.6683
26.0888
27.5741
29.1262
30.7469
32.4378
34.2005
36.0366
37.9474
39.9341
41.9979
44.1396
46.3602
48.6602
51.04
53.4998
56.0395
58.659
61.3578
64.1351
66.9899
69.9211
72.9272
76.0064
79.1569
82.3763
85.6623
89.0122
92.4228
95.8911
99.4133
102.986
106.604
110.263
113.959
117.685
121.437
125.207
128.99
132.779
136.569
140.352
144.119
147.853
151.542
155.177
158.75
162.256
165.689
169.045
172.321
175.512
178.615
181.627
184.545
187.366
190.089
192.71
195.229
197.645
199.955
202.16
204.258
206.249
208.134
209.911
211.582
213.146
214.605
215.958
217.208
218.356
219.402
220.349
221.197
221.948
222.604
223.164
223.629
224.001
224.28
224.466
224.557
224.551
224.447
224.241
223.93
223.509
222.971
222.31
221.521
220.596
219.535
218.341
217.033
215.646
214.227
212.85
211.748
211.526
0.0917616
0.0605661
0.0529544
0.0515312
0.0526163
0.0551865
0.0589046
0.0636868
0.0694561
0.076174
0.0839547
0.0929314
0.103245
0.115039
0.128455
0.143634
0.160708
0.179802
0.201038
0.224532
0.250406
0.278787
0.309816
0.343646
0.380453
0.420429
0.463786
0.510753
0.561578
0.616529
0.675889
0.739963
0.809079
0.883583
0.963846
1.05027
1.14326
1.24329
1.35082
1.46636
1.59046
1.72369
1.86666
2.02003
2.18448
2.36075
2.54961
2.7519
2.9685
3.20033
3.44839
3.71372
3.99743
4.3007
4.62476
4.97092
5.34053
5.73505
6.15596
6.60484
7.08328
7.59295
8.13556
8.71281
9.32642
9.9781
10.6695
11.4022
12.1778
12.9975
13.8626
14.7743
15.7336
16.7414
17.7989
18.9074
20.0688
21.2853
22.5599
23.8956
25.2952
26.7612
28.2959
29.9013
31.5795
33.3324
35.1619
37.0696
39.0573
41.1262
43.2779
45.5133
47.8335
50.2392
52.7309
55.3089
57.9733
60.7238
63.56
66.4811
69.4861
72.5739
75.7428
78.9911
82.3168
85.7177
89.1912
92.7346
96.3449
100.019
103.753
107.543
111.385
115.274
119.205
123.172
127.168
131.186
135.22
139.26
143.299
147.33
151.332
155.291
159.196
163.037
166.806
170.496
174.101
177.616
181.035
184.354
187.568
190.672
193.664
196.539
199.294
201.925
204.432
206.81
209.06
211.178
213.163
215.016
216.735
218.32
219.772
221.091
222.278
223.335
224.263
225.065
225.744
226.302
226.742
227.069
227.284
227.392
227.396
227.3
227.107
226.821
226.443
225.977
225.422
224.783
224.057
223.245
222.345
221.357
220.279
219.108
217.85
216.509
215.104
213.668
212.239
210.889
209.812
209.414
0.125985
0.0794298
0.0682247
0.0656367
0.0665476
0.0694719
0.0738851
0.0794462
0.0860574
0.0937704
0.102674
0.112874
0.124488
0.137638
0.152446
0.169031
0.187511
0.207999
0.23061
0.255461
0.282676
0.312387
0.344745
0.379911
0.418069
0.459419
0.504181
0.552595
0.604918
0.66143
0.72243
0.788237
0.859195
0.935667
1.01804
1.10674
1.20219
1.30487
1.41528
1.53394
1.6614
1.79827
1.94518
2.1028
2.27182
2.45302
2.64718
2.85516
3.07784
3.31619
3.5712
3.84393
4.1355
4.44709
4.77995
5.13536
5.5147
5.91938
6.35088
6.81075
7.30056
7.82193
8.37654
8.96606
9.59221
10.2567
10.9612
11.7074
12.4969
13.3314
14.2125
15.1418
16.1209
17.1516
18.2357
19.3754
20.573
21.8311
23.1526
24.5404
25.9972
27.5257
29.1284
30.8077
32.566
34.4055
36.3285
38.337
40.4329
42.6181
44.894
47.2622
49.7239
52.2798
54.9309
57.6775
60.5197
63.4574
66.4903
69.6174
72.8379
76.1504
79.5533
83.0448
86.6227
90.2848
94.0284
97.8506
101.749
105.719
109.757
113.861
118.024
122.242
126.51
130.82
135.165
139.537
143.927
148.325
152.721
157.102
161.443
165.73
169.951
174.097
178.159
182.128
185.998
189.761
193.411
196.942
200.349
203.626
206.767
209.769
212.626
215.335
217.893
220.295
222.541
224.627
226.552
228.314
229.914
231.349
232.621
233.73
234.679
235.468
236.1
236.579
236.909
237.094
237.14
237.051
236.833
236.491
236.033
235.463
234.791
234.022
233.161
232.215
231.189
230.09
228.921
227.685
226.386
225.03
223.616
222.147
220.636
219.088
217.52
215.958
214.438
213.023
211.861
211.234
0.163616
0.100023
0.0845729
0.0805434
0.0811146
0.0842331
0.0889715
0.0950332
0.102328
0.110855
0.120662
0.131824
0.144432
0.158586
0.174392
0.191956
0.211387
0.232796
0.256298
0.282013
0.310072
0.340617
0.373803
0.4098
0.448797
0.491
0.536634
0.585944
0.639193
0.696666
0.758672
0.825538
0.897615
0.975279
1.05893
1.14899
1.24592
1.35018
1.4623
1.58281
1.71228
1.85132
2.00057
2.16073
2.3325
2.51667
2.71404
2.92548
3.1519
3.39427
3.6536
3.93097
4.22751
4.54443
4.88298
5.24447
5.63029
6.04187
6.48072
6.94839
7.4465
7.97671
8.54074
9.14034
9.77731
10.4535
11.1707
11.9309
12.7359
13.5877
14.4884
15.4399
16.4445
17.5045
18.6222
19.8004
21.0418
22.3494
23.7262
25.1753
26.6996
28.3023
29.9862
31.7541
33.609
35.5533
37.5899
39.7212
41.9494
44.2769
46.7055
49.237
51.8729
54.6144
57.4624
60.4175
63.48
66.6499
69.9267
73.3096
76.7977
80.3895
84.0833
87.8771
91.7687
95.7555
99.8347
104.003
108.258
112.596
117.013
121.504
126.065
130.691
135.374
140.108
144.884
149.693
154.523
159.362
164.2
169.008
173.764
178.455
183.068
187.592
192.018
196.335
200.536
204.613
208.557
212.362
216.02
219.526
222.872
226.052
229.062
231.896
234.55
237.02
239.303
241.396
243.296
245.001
246.512
247.826
248.944
249.868
250.598
251.137
251.49
251.659
251.651
251.471
251.125
250.622
249.969
249.174
248.245
247.191
246.025
244.756
243.392
241.943
240.418
238.83
237.185
235.49
233.752
231.985
230.192
228.38
226.561
224.745
222.948
221.193
219.508
217.946
216.619
215.726
0.202516
0.121171
0.101126
0.0955197
0.0955219
0.0984422
0.103333
0.109784
0.117618
0.126778
0.13727
0.149138
0.162451
0.177292
0.193753
0.211935
0.231943
0.25389
0.277895
0.304084
0.332594
0.363572
0.397181
0.433593
0.473
0.515609
0.561646
0.611357
0.665007
0.722883
0.785294
0.852571
0.925068
1.00316
1.08726
1.1778
1.27522
1.38001
1.49269
1.61381
1.74394
1.8837
2.03375
2.19478
2.36752
2.55275
2.75131
2.96406
3.19194
3.43593
3.69706
3.97644
4.27523
4.59464
4.93597
5.30056
5.68984
6.1053
6.54849
7.02103
7.52463
8.06104
8.63209
9.23968
9.88576
10.5724
11.3016
12.0756
12.8966
13.767
14.6891
15.6656
16.699
17.7923
18.9482
20.17
21.4609
22.8241
24.2633
25.7818
27.383
29.0705
30.8477
32.718
34.6845
36.7507
38.9196
41.1942
43.5773
46.0715
48.6792
51.4026
54.2435
57.2033
60.2833
63.4842
66.8064
70.2498
73.8142
77.4986
81.3019
85.2226
89.2587
93.408
97.6681
102.036
106.509
111.084
115.757
120.524
125.382
130.325
135.349
140.448
145.615
150.841
156.117
161.432
166.771
172.121
177.464
182.758
187.989
193.141
198.201
203.157
207.999
212.714
217.295
221.731
226.014
230.135
234.086
237.859
241.447
244.842
248.038
251.029
253.81
256.375
258.722
260.846
262.745
264.416
265.857
267.068
268.049
268.801
269.326
269.626
269.708
269.574
269.232
268.689
267.953
267.034
265.94
264.684
263.274
261.724
260.048
258.26
256.372
254.395
252.342
250.234
248.08
245.891
243.679
241.458
239.238
237.03
234.847
232.703
230.612
228.594
226.673
224.891
223.328
222.136
0.24034
0.14186
0.117178
0.109692
0.108854
0.111535
0.116516
0.123248
0.131475
0.141086
0.152049
0.164383
0.178139
0.193386
0.210211
0.228711
0.248991
0.271169
0.295367
0.321718
0.350363
0.381453
0.415149
0.451626
0.491073
0.533696
0.579717
0.629379
0.682944
0.740698
0.802946
0.870018
0.942266
1.02007
1.10382
1.19397
1.29095
1.39527
1.50742
1.62798
1.75751
1.89664
2.04603
2.20638
2.37843
2.56297
2.76085
2.97295
3.20022
3.44365
3.70433
3.98336
4.28196
4.60136
4.94292
5.30804
5.6982
6.11497
6.55999
7.035
7.54181
8.08233
8.65855
9.27257
9.92656
10.6228
11.3637
12.1518
12.9896
13.8799
14.8257
15.8298
16.8955
18.0261
19.2251
20.4962
21.843
23.2695
24.7796
26.3773
28.0666
29.8517
31.7364
33.7248
35.8208
38.0282
40.3507
42.7918
45.3549
48.0431
50.8592
53.8058
56.885
60.0987
63.4481
66.9344
70.5577
74.3183
78.2154
82.2482
86.4152
90.7148
95.1445
99.702
104.384
109.188
114.111
119.148
124.296
129.55
134.907
140.361
145.907
151.538
157.248
163.026
168.862
174.742
180.649
186.568
192.457
198.283
204.029
209.682
215.227
220.651
225.942
231.087
236.077
240.901
245.548
250.01
254.277
258.34
262.19
265.818
269.216
272.38
275.301
277.975
280.397
282.563
284.469
286.114
287.493
288.608
289.457
290.041
290.363
290.426
290.237
289.8
289.123
288.214
287.083
285.741
284.2
282.472
280.572
278.508
276.307
273.982
271.549
269.023
266.421
263.764
261.068
258.348
255.62
252.902
250.207
247.55
244.947
242.413
239.963
237.615
235.388
233.316
231.455
229.929
0.27503
0.160926
0.131621
0.12236
0.120791
0.123233
0.128236
0.135136
0.143604
0.153484
0.164715
0.177296
0.191261
0.206673
0.223615
0.242184
0.26249
0.284652
0.308798
0.335064
0.36359
0.394528
0.428034
0.46428
0.503449
0.545739
0.591369
0.640574
0.693611
0.750758
0.812317
0.878611
0.949987
1.02682
1.1095
1.19847
1.29417
1.39708
1.50774
1.62667
1.75447
1.89176
2.03921
2.19751
2.36743
2.54976
2.74535
2.95512
3.18002
3.4211
3.67943
3.9562
4.25264
4.57007
4.90989
5.27358
5.66273
6.07899
6.52416
7.0001
7.5088
8.05235
8.63299
9.25304
9.91497
10.6214
11.3751
12.1789
13.0359
13.9493
14.9224
15.9589
17.0626
18.2372
19.4869
20.8159
22.2287
23.7297
25.3236
27.015
28.8087
30.7092
32.7214
34.8497
37.0989
39.4733
41.9774
44.6151
47.3904
50.3069
53.3679
56.5763
59.9346
63.4449
67.1085
70.9267
74.8996
79.0271
83.3084
87.7422
92.3266
97.0596
101.938
106.96
112.121
117.418
122.846
128.402
134.082
139.88
145.791
151.811
157.933
164.151
170.457
176.84
183.287
189.782
196.306
202.83
209.291
215.673
221.959
228.134
234.182
240.089
245.842
251.429
256.837
262.056
267.074
271.882
276.468
280.823
284.935
288.794
292.393
295.725
298.782
301.559
304.05
306.251
308.158
309.767
311.077
312.086
312.793
313.199
313.309
313.125
312.655
311.905
310.882
309.594
308.056
306.281
304.28
302.069
299.663
297.078
294.337
291.457
288.459
285.361
282.184
278.951
275.682
272.397
269.115
265.856
262.639
259.482
256.404
253.421
250.55
247.807
245.209
242.784
240.568
238.675
0.304719
0.176952
0.144061
0.133395
0.131205
0.133397
0.138347
0.145292
0.15385
0.163826
0.175136
0.187763
0.201731
0.217101
0.233954
0.252391
0.272523
0.294476
0.318378
0.344364
0.372572
0.403145
0.436234
0.472
0.510618
0.552277
0.597187
0.645575
0.697689
0.7538
0.814201
0.879209
0.949165
1.02443
1.10541
1.19251
1.28619
1.38693
1.49524
1.61167
1.7368
1.87127
2.01573
2.1709
2.33754
2.51647
2.70856
2.91474
3.136
3.37341
3.62812
3.90135
4.1944
4.50867
4.84565
5.20695
5.59426
6.0094
6.45433
6.93111
7.44195
7.98922
8.57541
9.2032
9.87541
10.595
11.3653
12.1896
13.0714
14.0145
15.023
16.101
17.2529
18.4834
19.7972
21.1993
22.6949
24.2893
25.9879
27.7961
29.7194
31.7631
33.9327
36.2336
38.6709
41.2499
43.9753
46.852
49.8842
53.0761
56.4312
59.9529
63.6436
67.5057
71.5406
75.7493
80.1318
84.6876
89.4151
94.3123
99.3769
104.606
109.997
115.545
121.246
127.096
133.091
139.225
145.494
151.891
158.411
165.049
171.798
178.651
185.599
192.632
199.734
206.886
214.062
221.185
228.226
235.168
241.994
248.687
255.232
261.615
267.821
273.836
279.649
285.246
290.617
295.75
300.635
305.262
309.613
313.68
317.455
320.929
324.096
326.95
329.483
331.692
333.571
335.118
336.331
337.207
337.745
337.948
337.819
337.365
336.59
335.504
334.114
332.43
330.467
328.239
325.761
323.049
320.12
316.994
313.693
310.24
306.655
302.963
299.187
295.351
291.48
287.596
283.723
279.884
276.102
272.399
268.795
265.31
261.962
258.768
255.743
252.909
250.291
247.995
0.330718
0.190917
0.154852
0.142925
0.140135
0.14203
0.146832
0.153699
0.1622
0.172111
0.183329
0.195825
0.20962
0.224774
0.241369
0.259511
0.279316
0.300911
0.324425
0.349984
0.37772
0.407764
0.440254
0.47534
0.513184
0.553966
0.597884
0.645155
0.696019
0.750739
0.809599
0.872907
0.940999
1.01423
1.093
1.17771
1.26881
1.36678
1.47214
1.58543
1.70724
1.8382
1.97899
2.13033
2.29301
2.46786
2.65578
2.85775
3.07479
3.30805
3.55872
3.82812
4.11764
4.42882
4.76326
5.12274
5.50912
5.92446
6.37092
6.85086
7.36678
7.92139
8.51759
9.15846
9.84732
10.5877
11.3834
12.2383
13.1567
14.143
15.202
16.3386
17.558
18.8657
20.2673
21.7689
23.3764
25.0961
26.9342
28.8972
30.9913
33.2227
35.5974
38.1214
40.8006
43.6408
46.6473
49.8252
53.1793
56.7139
60.4326
64.3388
68.435
72.7233
77.2049
81.8806
86.7499
91.8115
97.0622
102.499
108.119
113.918
119.892
126.037
132.347
138.816
145.441
152.214
159.129
166.181
173.362
180.666
188.086
195.614
203.241
210.955
218.743
226.574
234.371
242.077
249.676
257.152
264.488
271.667
278.674
285.494
292.112
298.513
304.685
310.616
316.293
321.705
326.84
331.692
336.232
340.456
344.355
347.921
351.148
354.027
356.552
358.718
360.521
361.957
363.024
363.72
364.046
364.003
363.597
362.834
361.719
360.262
358.472
356.36
353.942
351.233
348.249
345.009
341.532
337.84
333.955
329.903
325.708
321.396
316.994
312.529
308.026
303.514
299.018
294.565
290.181
285.891
281.719
277.687
273.816
270.123
266.624
263.339
260.28
257.554
0.353624
0.203212
0.164234
0.151115
0.147711
0.149246
0.153807
0.16048
0.168794
0.178499
0.18948
0.2017
0.215179
0.229978
0.246185
0.263912
0.28328
0.304415
0.32744
0.352473
0.379629
0.409026
0.440788
0.475048
0.511958
0.551684
0.594415
0.640357
0.689742
0.742824
0.79988
0.861215
0.927157
0.998063
1.07432
1.15633
1.24455
1.33947
1.44158
1.55147
1.66972
1.79698
1.93396
2.08139
2.2401
2.41097
2.59494
2.79305
3.00642
3.23627
3.48392
3.7508
4.03849
4.34866
4.68317
5.04399
5.4333
5.85342
6.3069
6.79646
7.32505
7.89587
8.51234
9.17817
9.89733
10.6741
11.5129
12.4187
13.3965
14.4516
15.5897
16.8167
18.1388
19.5625
21.0946
22.7421
24.5121
26.412
28.449
30.6307
32.9642
35.4565
38.1135
40.9418
43.9476
47.1372
50.516
54.0894
57.8617
61.8372
66.0193
70.4108
75.0137
79.8294
84.8583
90.1007
95.5559
101.222
107.092
113.16
119.423
125.877
132.516
139.333
146.324
153.481
160.798
168.269
175.886
183.641
191.527
199.535
207.657
215.884
224.206
232.614
241.088
249.547
257.895
266.124
274.218
282.16
289.936
297.528
304.922
312.102
319.053
325.761
332.212
338.394
344.296
349.904
355.206
360.189
364.836
369.137
373.084
376.666
379.876
382.706
385.151
387.203
388.86
390.117
390.972
391.425
391.476
391.128
390.387
389.259
387.752
385.874
383.636
381.052
378.136
374.905
371.378
367.573
363.513
359.221
354.721
350.039
345.204
340.245
335.19
330.068
324.907
319.738
314.591
309.494
304.477
299.569
294.795
290.183
285.753
281.527
277.519
273.749
270.222
267.043
0.374258
0.21422
0.172469
0.158191
0.154153
0.155279
0.159529
0.165923
0.173955
0.183355
0.193996
0.205838
0.218901
0.233252
0.248988
0.266227
0.285097
0.30572
0.328209
0.352667
0.379193
0.407887
0.438858
0.472225
0.508127
0.54672
0.588182
0.632712
0.680535
0.7319
0.787083
0.846385
0.910138
0.978699
1.05246
1.13183
1.21729
1.30931
1.40844
1.51526
1.6304
1.75454
1.88843
2.03287
2.18875
2.35701
2.53872
2.73501
2.94715
3.17651
3.42461
3.6931
3.98379
4.29868
4.63994
5.00995
5.41131
5.84685
6.31966
6.83306
7.39066
7.99637
8.65445
9.36952
10.1465
10.9908
11.908
12.9042
13.9857
15.159
16.4308
17.8082
19.2987
20.9103
22.6508
24.5286
26.552
28.7293
31.069
33.5796
36.2694
39.1462
42.2137
45.4781
48.9462
52.6239
56.5161
60.6274
64.9614
69.5211
74.3088
79.3262
84.5738
90.0514
95.758
101.692
107.854
114.248
120.847
127.649
134.652
141.85
149.236
156.801
164.539
172.443
180.505
188.719
197.076
205.566
214.179
222.905
231.733
240.652
249.651
258.711
267.742
276.663
285.451
294.087
302.558
310.848
318.942
326.825
334.482
341.897
349.057
355.947
362.553
368.863
374.87
380.556
385.906
390.908
395.548
399.814
403.696
407.185
410.273
412.951
415.213
417.054
418.469
419.455
420.01
420.133
419.828
419.095
417.943
416.38
414.412
412.049
409.303
406.188
402.719
398.915
394.795
390.38
385.694
380.761
375.608
370.262
364.755
359.118
353.381
347.576
341.732
335.882
330.059
324.295
318.622
313.071
307.673
302.456
297.443
292.659
288.119
283.843
279.829
276.185
0.393887
0.224411
0.179894
0.16447
0.159802
0.160512
0.164434
0.170529
0.178253
0.187318
0.197587
0.209015
0.221628
0.235501
0.250744
0.267489
0.285866
0.305993
0.327969
0.35188
0.377806
0.405834
0.436058
0.468588
0.503552
0.541098
0.581398
0.624649
0.671074
0.720925
0.774485
0.832064
0.894006
0.960686
1.03251
1.10993
1.19343
1.28354
1.38085
1.486
1.59968
1.72265
1.85576
1.99992
2.15616
2.32558
2.50943
2.70906
2.92599
3.16189
3.41863
3.69826
4.00306
4.33551
4.69841
5.09483
5.52815
6.0021
6.52074
7.08843
7.7098
8.38998
9.13459
9.94974
10.842
11.8183
12.8862
14.0537
15.3293
16.7212
18.2364
19.8836
21.6721
23.6112
25.7101
27.978
30.424
33.0571
35.886
38.9196
42.1671
45.6423
49.3338
53.249
57.3947
61.7756
66.3947
71.2541
76.3551
81.6985
87.2843
93.1119
99.1796
105.484
112.022
118.789
125.782
132.997
140.422
148.051
155.877
163.89
172.082
180.443
188.965
197.64
206.462
215.427
224.523
233.735
243.051
252.455
261.938
271.473
281.043
290.52
299.874
309.08
318.118
326.973
335.63
344.076
352.298
360.281
368.012
375.476
382.66
389.549
396.13
402.391
408.32
413.904
419.129
423.982
428.451
432.523
436.188
439.438
442.262
444.653
446.604
448.11
449.166
449.769
449.919
449.614
448.857
447.65
446.001
443.916
441.406
438.48
435.153
431.438
427.352
422.914
418.146
413.069
407.709
402.091
396.244
390.196
383.982
377.639
371.195
364.682
358.133
351.582
345.065
338.616
332.27
326.062
320.024
314.187
308.579
303.224
298.139
293.345
288.836
284.723
0.413776
0.234321
0.186944
0.170409
0.165178
0.165556
0.169245
0.175134
0.182643
0.19146
0.201434
0.212517
0.224741
0.238197
0.253021
0.269363
0.287359
0.307116
0.328717
0.352234
0.377736
0.405301
0.435017
0.46699
0.501346
0.538232
0.577824
0.620325
0.66597
0.715031
0.767814
0.824663
0.885959
0.952121
1.02361
1.10094
1.18468
1.27543
1.37389
1.48082
1.59707
1.72359
1.86142
2.01173
2.17581
2.35514
2.55134
2.76621
3.00179
3.26039
3.54458
3.85726
4.20163
4.58121
5.00001
5.46253
5.97378
6.53932
7.16529
7.85836
8.62453
9.47124
10.4067
11.4397
12.5793
13.8355
15.2183
16.7387
18.409
20.2434
22.2398
24.4116
26.7694
29.3232
32.0818
35.0538
38.2472
41.6689
45.3254
49.2221
53.3642
57.7562
62.3957
67.2835
72.4207
77.8073
83.4418
89.322
95.445
101.808
108.409
115.244
122.309
129.598
137.103
144.817
152.734
160.85
169.159
177.656
186.329
195.166
204.157
213.291
222.558
231.95
241.462
251.107
260.859
270.691
280.595
290.527
300.49
310.377
320.077
329.598
338.937
348.087
357.037
365.774
374.288
382.567
390.6
398.375
405.879
413.099
420.022
426.636
432.927
438.882
444.49
449.737
454.611
459.1
463.19
466.871
470.13
472.96
475.349
477.291
478.778
479.805
480.366
480.46
480.085
479.24
477.928
476.152
473.919
471.235
468.111
464.558
460.591
456.223
451.474
446.363
440.911
435.142
429.081
422.756
416.196
409.431
402.495
395.424
388.251
381.011
373.739
366.473
359.25
352.106
345.08
338.208
331.526
325.066
318.858
312.93
307.298
301.984
296.964
292.359
0.43646
0.244413