/*--------------------------------*- C++ -*----------------------------------*\
| =========                 |                                                 |
| \\      /  F ield         | OpenFOAM: The Open Source CFD Toolbox           |
|  \\    /   O peration     | Version:  1.4.2                                 |
|   \\  /    A nd           | Web:      http://www.openfoam.org               |
|    \\/     M anipulation  |                                                 |
\*---------------------------------------------------------------------------*/
FoamFile
{
    version     2.0;
    format      ascii;
    class       volScalarField;
    object      p;
    location    "950";
}
// * * * * * * * * * * * * * * * * * * * * * * * * * * * * * * * * * * * * * //

dimensions      [0 2 -2 0 0 0 0];

internalField   nonuniform List<scalar> 
12225
(
-5.50148
-6.33907
-6.58837
-6.68594
-6.79167
-6.89536
-6.98694
-7.07008
-7.14874
-7.22465
-7.29889
-7.37254
-7.44693
-7.52371
-7.6053
-7.69573
-7.80177
-7.95008
-5.66782
-6.34622
-6.58635
-6.68753
-6.79228
-6.89427
-6.98466
-7.06687
-7.14465
-7.2197
-7.2931
-7.36593
-7.43947
-7.51534
-7.59581
-7.68451
-7.78759
-7.92088
-5.84686
-6.34218
-6.57558
-6.68523
-6.79014
-6.8907
-6.9804
-7.06228
-7.13971
-7.21436
-7.28729
-7.35953
-7.43229
-7.50696
-7.58535
-7.66989
-7.76276
-7.86562
-6.00401
-6.35975
-6.57848
-6.6925
-6.79586
-6.89393
-6.98228
-7.0634
-7.14021
-7.21426
-7.28653
-7.35801
-7.42968
-7.50267
-7.57818
-7.65735
-7.73987
-7.82275
-6.13383
-6.39113
-6.58908
-6.70367
-6.80464
-6.89984
-6.98638
-7.06629
-7.14206
-7.21508
-7.28628
-7.35651
-7.42656
-7.49721
-7.56906
-7.64223
-7.71512
-7.78347
-6.24688
-6.43085
-6.60463
-6.71668
-6.8145
-6.90662
-6.99118
-7.06973
-7.14431
-7.21616
-7.28609
-7.3548
-7.42288
-7.49078
-7.5586
-7.62583
-7.6904
-7.74838
-6.34709
-6.47637
-6.62488
-6.73156
-6.82531
-6.91381
-6.99593
-7.07278
-7.14593
-7.21638
-7.28481
-7.35174
-7.41755
-7.48241
-7.54607
-7.60769
-7.66529
-7.71575
-6.4232
-6.51816
-6.64583
-6.74595
-6.83546
-6.92041
-7.00001
-7.075
-7.14658
-7.21553
-7.28239
-7.34753
-7.41118
-7.47329
-7.53349
-7.59083
-7.64361
-7.68938
-6.48416
-6.55617
-6.6664
-6.76011
-6.84541
-6.92692
-7.00401
-7.07707
-7.14698
-7.21436
-7.27959
-7.34294
-7.4045
-7.4641
-7.52129
-7.57517
-7.62435
-7.66682
-6.54417
-6.59767
-6.69054
-6.77678
-6.85713
-6.93462
-7.00871
-7.07943
-7.1473
-7.21274
-7.276
-7.33721
-7.39636
-7.4532
-7.50725
-7.55772
-7.60354
-7.64315
-6.6024
-6.64166
-6.71815
-6.79595
-6.87062
-6.94353
-7.01411
-7.08201
-7.14743
-7.21055
-7.27149
-7.33024
-7.3867
-7.44059
-7.49145
-7.53865
-7.5814
-7.61855
-6.65799
-6.6868
-6.74866
-6.8174
-6.88581
-6.95365
-7.02018
-7.08479
-7.14731
-7.20772
-7.26598
-7.32198
-7.37553
-7.42635
-7.47405
-7.51815
-7.55811
-7.59315
-6.71011
-6.73152
-6.78098
-6.84058
-6.90236
-6.96477
-7.02681
-7.08766
-7.14686
-7.20418
-7.25943
-7.31241
-7.3629
-7.41062
-7.45525
-7.49646
-7.53392
-7.5671
-6.75775
-6.77402
-6.8135
-6.86448
-6.91956
-6.97636
-7.03363
-7.09037
-7.14591
-7.19983
-7.25182
-7.30161
-7.34895
-7.39359
-7.4353
-7.47386
-7.50905
-7.54058
-6.79951
-6.81227
-6.8441
-6.8875
-6.93621
-6.98753
-7.03998
-7.09246
-7.14415
-7.19449
-7.24309
-7.28963
-7.33385
-7.37553
-7.41451
-7.45064
-7.48381
-7.51384
-6.83336
-6.84378
-6.8701
-6.90737
-6.95053
-6.99686
-7.04479
-7.09314
-7.14105
-7.18786
-7.23313
-7.27652
-7.31776
-7.35669
-7.39317
-7.42712
-7.45847
-7.48715
-6.85629
-6.86528
-6.88804
-6.92103
-6.95997
-7.0023
-7.04645
-7.09124
-7.13578
-7.1794
-7.22165
-7.26219
-7.30078
-7.33727
-7.37157
-7.40362
-7.4334
-7.46087
-6.86326
-6.87173
-6.89318
-6.92434
-6.96121
-7.00134
-7.0432
-7.08568
-7.1279
-7.16925
-7.20928
-7.24769
-7.28427
-7.31891
-7.35153
-7.38211
-7.41064
-7.43711
-6.85368
-6.8626
-6.88504
-6.91701
-6.9542
-6.99418
-7.03553
-7.07723
-7.11846
-7.15867
-7.1975
-7.23467
-7.27004
-7.30352
-7.33507
-7.36469
-7.39239
-7.41817
-6.83155
-6.84192
-6.8675
-6.90252
-6.94189
-6.98328
-7.02548
-7.06754
-7.10877
-7.14872
-7.18709
-7.22371
-7.25846
-7.29131
-7.32224
-7.35129
-7.37846
-7.40378
-6.79939
-6.81256
-6.8437
-6.88377
-6.9267
-6.97058
-7.0145
-7.05766
-7.09951
-7.13972
-7.17811
-7.21459
-7.24909
-7.28163
-7.31222
-7.34091
-7.36775
-7.39274
-6.75839
-6.77649
-6.81618
-6.86302
-6.91043
-6.95746
-7.00363
-7.04829
-7.09107
-7.13183
-7.1705
-7.20706
-7.24154
-7.27395
-7.30437
-7.33286
-7.35946
-7.38419
-6.70877
-6.7353
-6.78716
-6.8421
-6.89438
-6.94488
-6.99352
-7.03982
-7.08365
-7.12506
-7.16412
-7.2009
-7.23547
-7.26789
-7.29825
-7.32661
-7.35305
-7.37756
-6.64992
-6.69058
-6.75879
-6.82236
-6.87941
-6.93341
-6.98453
-7.03242
-7.07727
-7.11934
-7.15882
-7.19585
-7.23056
-7.26305
-7.29342
-7.32174
-7.34806
-7.37235
-6.58058
-6.64421
-6.73299
-6.80474
-6.86602
-6.92337
-6.97678
-7.02608
-7.0718
-7.11445
-7.15431
-7.19159
-7.22646
-7.25907
-7.28951
-7.31785
-7.34412
-7.36823
-6.49895
-6.59849
-6.71124
-6.78957
-6.85425
-6.91463
-6.97005
-7.02051
-7.06693
-7.11005
-7.15023
-7.18774
-7.22279
-7.25556
-7.28616
-7.31465
-7.34101
-7.36503
-6.40151
-6.55701
-6.69468
-6.77672
-6.84398
-6.90713
-6.9643
-7.01572
-7.06276
-7.10634
-7.14688
-7.18468
-7.22001
-7.25304
-7.28394
-7.31278
-7.33951
-7.36383
-6.27663
-6.5256
-6.68588
-6.76704
-6.83583
-6.90149
-6.96016
-7.01235
-7.05991
-7.10386
-7.1447
-7.18273
-7.21826
-7.25151
-7.28268
-7.31193
-7.33921
-7.36433
-6.11565
-6.5148
-6.69299
-6.76808
-6.8365
-6.90355
-6.9629
-7.01527
-7.06289
-7.1069
-7.14777
-7.18583
-7.22138
-7.2547
-7.28602
-7.31564
-7.34374
-7.37082
-5.95274
-6.49825
-6.69297
-6.76539
-6.83437
-6.90278
-6.9629
-7.01566
-7.06358
-7.10786
-7.14898
-7.18729
-7.22309
-7.25667
-7.2883
-7.31836
-7.34739
-7.37941
-8.01223
-8.01218
-8.01213
-8.01213
-8.01216
-8.01225
-8.01238
-8.01256
-8.01279
-8.01304
-8.01332
-8.01361
-8.01393
-8.01425
-8.01459
-8.01494
-8.0153
-8.01569
-8.0161
-8.01655
-8.01703
-8.01757
-8.01816
-8.0188
-8.01951
-8.02029
-8.02116
-8.02213
-8.02322
-8.02443
-8.02579
-8.02732
-8.02903
-8.03096
-8.03312
-8.03553
-8.03824
-8.04125
-8.04458
-8.04827
-8.05233
-8.05677
-8.06162
-8.06689
-8.0726
-8.07875
-8.08538
-8.09248
-8.10007
-8.10817
-8.11678
-8.12592
-8.13559
-8.14581
-8.1566
-8.16795
-8.17989
-8.19241
-8.20554
-8.21926
-8.23361
-8.24857
-8.26415
-8.28036
-8.2972
-8.31466
-8.33274
-8.35143
-8.37071
-8.39059
-8.41103
-8.43201
-8.45352
-8.47553
-8.49804
-8.52111
-8.54491
-8.56946
-8.59424
-8.61894
-8.64365
-8.66836
-8.69299
-8.71747
-8.74172
-8.76563
-8.78909
-8.81198
-8.83417
-8.85555
-8.87595
-8.89524
-8.91326
-8.92986
-8.94485
-8.95806
-8.96932
-8.97843
-8.9852
-8.98942
-8.99089
-8.98938
-8.98467
-8.97653
-8.96471
-8.94896
-8.92903
-8.90464
-8.87552
-8.84138
-8.80193
-8.75687
-8.70592
-8.64878
-8.58515
-8.51477
-8.43738
-8.35274
-8.26062
-8.16086
-8.05328
-7.93777
-7.81418
-7.68242
-7.54243
-7.39429
-7.23806
-7.07384
-6.90174
-6.72188
-6.53439
-6.33942
-6.13714
-5.92772
-5.71137
-5.4883
-5.25875
-5.02299
-4.78128
-4.53394
-4.28129
-4.02367
-3.76146
-3.49504
-3.22484
-2.95128
-2.67482
-2.39593
-2.11509
-1.83279
-1.54952
-1.26579
-0.982087
-0.698912
-0.416741
-0.136042
0.14274
0.419185
0.692905
0.963552
1.23081
1.49442
1.75413
2.0098
2.2613
2.5086
2.75168
2.99062
3.22554
3.45665
3.68421
3.90854
4.13006
4.34928
4.5669
4.78367
5.00118
5.21952
5.44563
5.66463
-8.01235
-8.01229
-8.01225
-8.01225
-8.0123
-8.01239
-8.01253
-8.0127
-8.01289
-8.01311
-8.01335
-8.01359
-8.01384
-8.0141
-8.01438
-8.01467
-8.01497
-8.01529
-8.01564
-8.01601
-8.01642
-8.01687
-8.01737
-8.01792
-8.01853
-8.0192
-8.01996
-8.0208
-8.02175
-8.02281
-8.02402
-8.02539
-8.02693
-8.02869
-8.03067
-8.0329
-8.0354
-8.03821
-8.04134
-8.0448
-8.04863
-8.05283
-8.05743
-8.06244
-8.06787
-8.07374
-8.08007
-8.08686
-8.09412
-8.10188
-8.11014
-8.11891
-8.12821
-8.13804
-8.14842
-8.15936
-8.17087
-8.18297
-8.19565
-8.20893
-8.22282
-8.23733
-8.25246
-8.26822
-8.28462
-8.30165
-8.31932
-8.33763
-8.35658
-8.37615
-8.39634
-8.41713
-8.4385
-8.46042
-8.48285
-8.50571
-8.52885
-8.55201
-8.57547
-8.59941
-8.62353
-8.64769
-8.67182
-8.69582
-8.7196
-8.74307
-8.76612
-8.78862
-8.81046
-8.8315
-8.85161
-8.87064
-8.88845
-8.90486
-8.91973
-8.93286
-8.94409
-8.95323
-8.96008
-8.96445
-8.96612
-8.9649
-8.96054
-8.95283
-8.94152
-8.92638
-8.90714
-8.88355
-8.85532
-8.82219
-8.78385
-8.74002
-8.69041
-8.63471
-8.57265
-8.50395
-8.42834
-8.34557
-8.25543
-8.15773
-8.05229
-7.939
-7.81769
-7.6882
-7.55049
-7.40462
-7.25068
-7.08876
-6.91896
-6.74141
-6.55622
-6.36355
-6.16355
-5.95641
-5.74232
-5.52149
-5.29415
-5.06057
-4.821
-4.57576
-4.32515
-4.06952
-3.80924
-3.54468
-3.27626
-3.00439
-2.72953
-2.45214
-2.17269
-1.89166
-1.60956
-1.32686
-1.04407
-0.761672
-0.480138
-0.199933
0.0784981
0.354739
0.628403
0.899139
1.16664
1.43062
1.69086
1.94719
2.19949
2.44771
2.69185
2.93196
3.16818
3.40071
3.6298
3.85581
4.07916
4.30036
4.52014
4.73911
4.95904
5.17889
5.40746
5.6228
-8.01234
-8.01228
-8.01224
-8.01225
-8.01232
-8.01243
-8.01258
-8.01275
-8.01293
-8.01312
-8.01331
-8.0135
-8.0137
-8.01391
-8.01412
-8.01433
-8.01456
-8.01482
-8.01509
-8.0154
-8.01574
-8.01611
-8.01654
-8.01701
-8.01755
-8.01815
-8.01883
-8.01961
-8.0205
-8.02151
-8.02266
-8.02398
-8.02548
-8.02718
-8.0291
-8.03127
-8.03371
-8.03644
-8.03947
-8.04284
-8.04655
-8.05062
-8.05507
-8.05992
-8.06518
-8.07086
-8.07699
-8.08356
-8.0906
-8.09812
-8.10613
-8.11464
-8.12367
-8.13323
-8.14332
-8.15397
-8.16518
-8.17697
-8.18934
-8.2023
-8.21587
-8.23004
-8.24484
-8.26025
-8.2763
-8.29297
-8.31027
-8.32819
-8.34673
-8.36589
-8.38564
-8.40598
-8.42689
-8.44834
-8.47031
-8.49275
-8.51559
-8.53866
-8.56196
-8.58552
-8.60922
-8.63297
-8.65669
-8.68029
-8.7037
-8.7268
-8.74949
-8.77166
-8.79319
-8.81393
-8.83377
-8.85256
-8.87014
-8.88636
-8.90106
-8.91406
-8.9252
-8.93428
-8.94112
-8.94552
-8.94728
-8.94618
-8.94202
-8.93456
-8.92358
-8.90882
-8.89006
-8.86701
-8.83942
-8.80701
-8.76949
-8.72658
-8.67799
-8.62342
-8.56258
-8.4952
-8.42101
-8.33976
-8.25123
-8.15521
-8.05156
-7.94014
-7.82072
-7.69311
-7.55734
-7.41346
-7.26153
-7.10167
-6.93395
-6.75851
-6.57546
-6.38495
-6.18714
-5.98219
-5.7703
-5.55168
-5.32656
-5.09518
-4.85782
-4.61477
-4.36633
-4.11286
-3.85469
-3.59222
-3.32584
-3.05598
-2.78307
-2.50756
-2.22993
-1.95066
-1.67022
-1.38912
-1.10783
-0.826826
-0.546589
-0.26757
0.00979337
0.285088
0.557932
0.82798
1.09493
1.3585
1.61847
1.87468
2.12701
2.37542
2.61988
2.86048
3.09735
3.33069
3.56075
3.78791
4.01261
4.23532
4.45684
4.67753
4.89949
5.11973
5.35102
5.55816
-8.01212
-8.01208
-8.01206
-8.0121
-8.01219
-8.01232
-8.01246
-8.01262
-8.01278
-8.01294
-8.01309
-8.01325
-8.01341
-8.01357
-8.01373
-8.0139
-8.01408
-8.01427
-8.01449
-8.01474
-8.01502
-8.01534
-8.01572
-8.01615
-8.01665
-8.01723
-8.01789
-8.01866
-8.01954
-8.02055
-8.02171
-8.02303
-8.02454
-8.02625
-8.02819
-8.03036
-8.0328
-8.03553
-8.03855
-8.04189
-8.04557
-8.0496
-8.05401
-8.0588
-8.064
-8.06961
-8.07565
-8.08214
-8.08909
-8.09652
-8.10443
-8.11283
-8.12175
-8.1312
-8.14118
-8.15171
-8.16281
-8.17447
-8.18672
-8.19956
-8.213
-8.22704
-8.24171
-8.25699
-8.27289
-8.28942
-8.30657
-8.32434
-8.34272
-8.3617
-8.38127
-8.4014
-8.42207
-8.44326
-8.46493
-8.48704
-8.50954
-8.53237
-8.55549
-8.57884
-8.60234
-8.62591
-8.64947
-8.67293
-8.6962
-8.71918
-8.74176
-8.76382
-8.78525
-8.80591
-8.82568
-8.84441
-8.86195
-8.87815
-8.89283
-8.90585
-8.91701
-8.92614
-8.93305
-8.93755
-8.93944
-8.9385
-8.93453
-8.92731
-8.9166
-8.90216
-8.88375
-8.86112
-8.83399
-8.8021
-8.76515
-8.72287
-8.67496
-8.62112
-8.56107
-8.49453
-8.42122
-8.3409
-8.25335
-8.15836
-8.05578
-7.94544
-7.82705
-7.70045
-7.56574
-7.42295
-7.27217
-7.11347
-6.94695
-6.77273
-6.59093
-6.40168
-6.20515
-6.0015
-5.79091
-5.57361
-5.3498
-5.11973
-4.88368
-4.64193
-4.39479
-4.14259
-3.88569
-3.62446
-3.35931
-3.09065
-2.81891
-2.54455
-2.26803
-1.98983
-1.71044
-1.43035
-1.15003
-0.869957
-0.590604
-0.312424
-0.0358533
0.238698
0.510848
0.780258
1.04662
1.30967
1.56918
1.82498
2.07697
2.3251
2.56936
2.80981
3.04661
3.27996
3.51009
3.73738
3.96226
4.18516
4.40694
4.62761
4.84972
5.06851
5.30073
5.49712
-8.01161
-8.01162
-8.01166
-8.01175
-8.01187
-8.01201
-8.01216
-8.01231
-8.01246
-8.0126
-8.01274
-8.01288
-8.013
-8.01312
-8.01325
-8.01338
-8.01352
-8.01368
-8.01387
-8.01409
-8.01434
-8.01465
-8.01501
-8.01543
-8.01593
-8.01651
-8.01719
-8.01797
-8.01888
-8.01993
-8.02113
-8.0225
-8.02405
-8.02581
-8.02779
-8.03001
-8.0325
-8.03526
-8.03831
-8.04168
-8.04538
-8.04943
-8.05385
-8.05864
-8.06383
-8.06942
-8.07545
-8.08191
-8.08882
-8.0962
-8.10406
-8.11242
-8.12128
-8.13066
-8.14057
-8.15103
-8.16204
-8.17362
-8.18578
-8.19852
-8.21186
-8.22581
-8.24036
-8.25553
-8.27132
-8.28772
-8.30475
-8.32238
-8.34063
-8.35946
-8.37888
-8.39886
-8.41938
-8.44041
-8.46192
-8.48386
-8.5062
-8.5289
-8.55189
-8.57512
-8.59851
-8.62198
-8.64545
-8.66884
-8.69204
-8.71496
-8.7375
-8.75952
-8.78093
-8.80158
-8.82135
-8.84008
-8.85764
-8.87387
-8.88861
-8.90168
-8.91292
-8.92215
-8.92919
-8.93383
-8.93588
-8.93514
-8.93139
-8.92442
-8.914
-8.89989
-8.88184
-8.85961
-8.83292
-8.8015
-8.76508
-8.72334
-8.67602
-8.6228
-8.5634
-8.49753
-8.42491
-8.3453
-8.25847
-8.16422
-8.06241
-7.95275
-7.83495
-7.70896
-7.57489
-7.43277
-7.28268
-7.1247
-6.95892
-6.78545
-6.60441
-6.41594
-6.22018
-6.01731
-5.8075
-5.59096
-5.36791
-5.13859
-4.90326
-4.66221
-4.41576
-4.16422
-3.90795
-3.64733
-3.38276
-3.11464
-2.84341
-2.56954
-2.29348
-2.01571
-1.73673
-1.45702
-1.17706
-0.897341
-0.618315
-0.340449
-0.0641819
0.210073
0.481928
0.751046
1.01712
1.27987
1.53908
1.79457
2.04624
2.29404
2.53795
2.77803
3.01443
3.24737
3.47699
3.70376
3.92806
4.15021
4.3712
4.5907
4.81159
5.02784
5.25965
5.44442
-8.01082
-8.0109
-8.01102
-8.01118
-8.01135
-8.01152
-8.01168
-8.01184
-8.01199
-8.01213
-8.01226
-8.01237
-8.01248
-8.01259
-8.0127
-8.01281
-8.01294
-8.01309
-8.01327
-8.01348
-8.01374
-8.01405
-8.01442
-8.01486
-8.01538
-8.01599
-8.01671
-8.01754
-8.0185
-8.01961
-8.02087
-8.02231
-8.02394
-8.02577
-8.02783
-8.03013
-8.03268
-8.03551
-8.03864
-8.04207
-8.04583
-8.04993
-8.05438
-8.05921
-8.06443
-8.07005
-8.07609
-8.08256
-8.08947
-8.09685
-8.1047
-8.11303
-8.12187
-8.13122
-8.1411
-8.15151
-8.16248
-8.17401
-8.18612
-8.19881
-8.21209
-8.22597
-8.24046
-8.25556
-8.27128
-8.28761
-8.30456
-8.32212
-8.34029
-8.35905
-8.37839
-8.39829
-8.41873
-8.43969
-8.46113
-8.48301
-8.50529
-8.52793
-8.55088
-8.57407
-8.59742
-8.62087
-8.64433
-8.66771
-8.69092
-8.71385
-8.73641
-8.75846
-8.77991
-8.8006
-8.82042
-8.83922
-8.85684
-8.87315
-8.88797
-8.90115
-8.9125
-8.92186
-8.92903
-8.93383
-8.93606
-8.93552
-8.93199
-8.92527
-8.91512
-8.90131
-8.8836
-8.86173
-8.83543
-8.80443
-8.76844
-8.72718
-8.68033
-8.62761
-8.56872
-8.50336
-8.43126
-8.35216
-8.26583
-8.17209
-8.07077
-7.96145
-7.84387
-7.71819
-7.58445
-7.44268
-7.29297
-7.13538
-6.97002
-6.79698
-6.61637
-6.42835
-6.23303
-6.0306
-5.82122
-5.60509
-5.38243
-5.15348
-4.91849
-4.67776
-4.43159
-4.1803
-3.92425
-3.66381
-3.39938
-3.13137
-2.86022
-2.58638
-2.31034
-2.03256
-1.75355
-1.47379
-1.19378
-0.913999
-0.634909
-0.356988
-0.0806791
0.193595
0.465437
0.73451
1.00051
1.26313
1.52215
1.77738
2.02873
2.27616
2.51959
2.75908
2.99483
3.22701
3.45567
3.68143
3.90461
4.12538
4.3449
4.56265
4.78147
4.99435
5.22498
5.39848
-8.00978
-8.00994
-8.01017
-8.01041
-8.01065
-8.01086
-8.01106
-8.01124
-8.0114
-8.01155
-8.01168
-8.01179
-8.0119
-8.01201
-8.01212
-8.01224
-8.01238
-8.01254
-8.01273
-8.01296
-8.01323
-8.01357
-8.01397
-8.01444
-8.01501
-8.01567
-8.01644
-8.01734
-8.01837
-8.01955
-8.0209
-8.02242
-8.02414
-8.02607
-8.02822
-8.03062
-8.03327
-8.03619
-8.03941
-8.04292
-8.04676
-8.05093
-8.05546
-8.06035
-8.06562
-8.07129
-8.07737
-8.08387
-8.09081
-8.09821
-8.10607
-8.11442
-8.12326
-8.13261
-8.14248
-8.15288
-8.16384
-8.17535
-8.18744
-8.2001
-8.21336
-8.22722
-8.24168
-8.25676
-8.27245
-8.28876
-8.30569
-8.32323
-8.34137
-8.36011
-8.37944
-8.39933
-8.41976
-8.44071
-8.46215
-8.48404
-8.50634
-8.529
-8.55197
-8.57518
-8.59858
-8.62207
-8.64557
-8.66901
-8.69228
-8.71529
-8.73792
-8.76006
-8.78158
-8.80237
-8.82228
-8.84118
-8.85891
-8.87533
-8.89027
-8.90357
-8.91506
-8.92456
-8.93188
-8.93684
-8.93925
-8.93891
-8.9356
-8.92911
-8.91922
-8.90569
-8.88827
-8.86672
-8.84076
-8.81012
-8.77451
-8.73363
-8.68717
-8.63484
-8.57633
-8.51135
-8.4396
-8.36084
-8.27482
-8.18137
-8.08027
-7.97096
-7.85335
-7.72771
-7.59404
-7.45239
-7.3028
-7.14537
-6.98018
-6.80732
-6.62691
-6.43908
-6.24397
-6.04172
-5.83251
-5.61653
-5.39401
-5.16516
-4.93024
-4.68955
-4.44337
-4.19204
-3.93591
-3.67535
-3.41075
-3.14254
-2.87114
-2.59703
-2.32067
-2.04257
-1.76321
-1.4831
-1.20274
-0.922599
-0.643165
-0.364925
-0.0883322
0.186181
0.458201
0.727399
0.99346
1.25605
1.51495
1.76991
2.02094
2.26793
2.51074
2.74942
2.9843
3.21548
3.44283
3.66723
3.88899
4.10808
4.32555
4.54089
4.75707
4.96627
5.1953
5.35843
-8.00857
-8.00882
-8.00917
-8.00952
-8.00982
-8.0101
-8.01034
-8.01055
-8.01073
-8.0109
-8.01104
-8.01118
-8.01131
-8.01143
-8.01156
-8.01171
-8.01187
-8.01205
-8.01227
-8.01253
-8.01284
-8.01321
-8.01365
-8.01417
-8.01479
-8.01552
-8.01636
-8.01733
-8.01845
-8.01972
-8.02116
-8.02279
-8.02461
-8.02664
-8.0289
-8.03141
-8.03417
-8.03719
-8.04051
-8.04412
-8.04806
-8.05232
-8.05692
-8.06189
-8.06723
-8.07296
-8.0791
-8.08565
-8.09264
-8.10007
-8.10797
-8.11634
-8.1252
-8.13457
-8.14446
-8.15488
-8.16585
-8.17737
-8.18947
-8.20214
-8.21541
-8.22928
-8.24375
-8.25884
-8.27454
-8.29087
-8.30781
-8.32537
-8.34355
-8.36232
-8.38168
-8.40161
-8.42209
-8.44309
-8.46459
-8.48654
-8.50891
-8.53165
-8.5547
-8.578
-8.60148
-8.62507
-8.64868
-8.67222
-8.6956
-8.71872
-8.74146
-8.76372
-8.78537
-8.80628
-8.82632
-8.84534
-8.86321
-8.87975
-8.89483
-8.90827
-8.91989
-8.92953
-8.93701
-8.94214
-8.94472
-8.94456
-8.94146
-8.93518
-8.92553
-8.91225
-8.8951
-8.87383
-8.84817
-8.81783
-8.78253
-8.74196
-8.69581
-8.64377
-8.58554
-8.5208
-8.44927
-8.37068
-8.28483
-8.19152
-8.09028
-7.98065
-7.86284
-7.73705
-7.60327
-7.46153
-7.31189
-7.15443
-6.98923
-6.81639
-6.63601
-6.44821
-6.25312
-6.05089
-5.84168
-5.62569
-5.40312
-5.17419
-4.93917
-4.69833
-4.45196
-4.2004
-3.94399
-3.68311
-3.41814
-3.14951
-2.87766
-2.60305
-2.32618
-2.04754
-1.76764
-1.48697
-1.20606
-0.925376
-0.645409
-0.366677
-0.0896433
0.185248
0.457556
0.726989
0.993221
1.25585
1.51465
1.76932
2.01999
2.26654
2.50865
2.74639
2.98027
3.21034
3.43639
3.6592
3.8791
4.09615
4.31126
4.5239
4.73719
4.94271
5.1698
5.32367
-8.00729
-8.00764
-8.00811
-8.00856
-8.00894
-8.00927
-8.00956
-8.00981
-8.01003
-8.01023
-8.01041
-8.01057
-8.01073
-8.01089
-8.01106
-8.01123
-8.01142
-8.01164
-8.01189
-8.01219
-8.01254
-8.01296
-8.01346
-8.01404
-8.01472
-8.01552
-8.01644
-8.01749
-8.0187
-8.02007
-8.02161
-8.02335
-8.02528
-8.02742
-8.0298
-8.03241
-8.03528
-8.03842
-8.04184
-8.04556
-8.04959
-8.05395
-8.05864
-8.06369
-8.06911
-8.07491
-8.08111
-8.08773
-8.09477
-8.10225
-8.1102
-8.11861
-8.12752
-8.13693
-8.14685
-8.1573
-8.1683
-8.17986
-8.19198
-8.20469
-8.21799
-8.23189
-8.24641
-8.26154
-8.27729
-8.29367
-8.31067
-8.32829
-8.34653
-8.36537
-8.38481
-8.40482
-8.4254
-8.4465
-8.4681
-8.49017
-8.51265
-8.53551
-8.55868
-8.58211
-8.60572
-8.62944
-8.65319
-8.67687
-8.70039
-8.72365
-8.74654
-8.76894
-8.79073
-8.81178
-8.83196
-8.85112
-8.86912
-8.8858
-8.90101
-8.91458
-8.92634
-8.93612
-8.94373
-8.94901
-8.95174
-8.95175
-8.94882
-8.94274
-8.93329
-8.92023
-8.90331
-8.88228
-8.85687
-8.82678
-8.79173
-8.7514
-8.70549
-8.65365
-8.59559
-8.53099
-8.45955
-8.38101
-8.29517
-8.20179
-8.10006
-7.98987
-7.87173
-7.74564
-7.61159
-7.46963
-7.31982
-7.16221
-6.99689
-6.82395
-6.64349
-6.45561
-6.26045
-6.05814
-5.84884
-5.63273
-5.41002
-5.18093
-4.9457
-4.70461
-4.45796
-4.20607
-3.94929
-3.68799
-3.42256
-3.15341
-2.881
-2.6058
-2.32831
-2.04904
-1.7685
-1.4872
-1.20566
-0.924344
-0.64375
-0.364449
-0.0869104
0.188406
0.461012
0.730712
0.997189
1.2599
1.5186
1.77297
2.02329
2.26942
2.51087
2.74781
2.98061
3.20934
3.43398
3.65511
3.87302
4.08792
4.30058
4.51049
4.72083
4.92284
5.14766
5.29349
-8.00604
-8.00646
-8.00704
-8.00759
-8.00805
-8.00844
-8.00879
-8.00909
-8.00936
-8.0096
-8.00982
-8.01003
-8.01023
-8.01043
-8.01063
-8.01084
-8.01107
-8.01132
-8.01161
-8.01195
-8.01235
-8.01282
-8.01337
-8.01401
-8.01477
-8.01564
-8.01664
-8.01779
-8.01909
-8.02056
-8.02221
-8.02405
-8.02609
-8.02835
-8.03083
-8.03356
-8.03654
-8.03979
-8.04331
-8.04713
-8.05126
-8.05571
-8.06049
-8.06563
-8.07112
-8.077
-8.08327
-8.08995
-8.09706
-8.1046
-8.1126
-8.12107
-8.13003
-8.13949
-8.14946
-8.15996
-8.17101
-8.18261
-8.19479
-8.20755
-8.2209
-8.23487
-8.24944
-8.26464
-8.28047
-8.29692
-8.31401
-8.33173
-8.35006
-8.36901
-8.38856
-8.4087
-8.4294
-8.45063
-8.47237
-8.49458
-8.51721
-8.54022
-8.56355
-8.58714
-8.61091
-8.63479
-8.65869
-8.68254
-8.70622
-8.72963
-8.75267
-8.77522
-8.79716
-8.81835
-8.83866
-8.85795
-8.87607
-8.89287
-8.9082
-8.92188
-8.93374
-8.94363
-8.95136
-8.95674
-8.9596
-8.95974
-8.95695
-8.95102
-8.94174
-8.92885
-8.91213
-8.89129
-8.86608
-8.8362
-8.80134
-8.76119
-8.71542
-8.66372
-8.60573
-8.54116
-8.46969
-8.39108
-8.30515
-8.21124
-8.1087
-7.99791
-7.8793
-7.75278
-7.61838
-7.47611
-7.32603
-7.1682
-7.0027
-6.8296
-6.649
-6.461
-6.26572
-6.06328
-5.85385
-5.63759
-5.4147
-5.18541
-4.94995
-4.7086
-4.46165
-4.20941
-3.95225
-3.69052
-3.42462
-3.15494
-2.88196
-2.60617
-2.32807
-2.04817
-1.767
-1.48508
-1.20299
-0.921047
-0.639809
-0.359956
-0.0819345
0.19378
0.466645
0.736594
1.00332
1.26611
1.52475
1.779
2.02897
2.27449
2.51525
2.7514
2.98314
3.21055
3.43379
3.65326
3.86927
4.08207
4.29235
4.49963
4.7071
4.90585
5.12815
5.26721
-8.00487
-8.00535
-8.00604
-8.00667
-8.00721
-8.00768
-8.00808
-8.00844
-8.00877
-8.00906
-8.00933
-8.00959
-8.00983
-8.01006
-8.0103
-8.01054
-8.0108
-8.01109
-8.01142
-8.01179
-8.01224
-8.01276
-8.01336
-8.01408
-8.0149
-8.01585
-8.01694
-8.01818
-8.01958
-8.02114
-8.02289
-8.02484
-8.02699
-8.02935
-8.03194
-8.03477
-8.03786
-8.04121
-8.04483
-8.04875
-8.05297
-8.0575
-8.06237
-8.06759
-8.07317
-8.07912
-8.08546
-8.09221
-8.09938
-8.10699
-8.11505
-8.12358
-8.13259
-8.1421
-8.15213
-8.16269
-8.1738
-8.18547
-8.19771
-8.21054
-8.22397
-8.23801
-8.25267
-8.26796
-8.28388
-8.30044
-8.31764
-8.33547
-8.35393
-8.37301
-8.3927
-8.41297
-8.43382
-8.45521
-8.47712
-8.49949
-8.52229
-8.54548
-8.56898
-8.59274
-8.61668
-8.64073
-8.6648
-8.6888
-8.71264
-8.73621
-8.75939
-8.78208
-8.80414
-8.82544
-8.84586
-8.86525
-8.88346
-8.90034
-8.91574
-8.92948
-8.94141
-8.95136
-8.95914
-8.96459
-8.96752
-8.96773
-8.96504
-8.95922
-8.95005
-8.93729
-8.92071
-8.90002
-8.87496
-8.84522
-8.81049
-8.77046
-8.72478
-8.67311
-8.61513
-8.55048
-8.47889
-8.40013
-8.31378
-8.21882
-8.11525
-8.00388
-7.88472
-7.75772
-7.62289
-7.48027
-7.32988
-7.1718
-7.00608
-6.83279
-6.65204
-6.46391
-6.26852
-6.06596
-5.85638
-5.63997
-5.41693
-5.18746
-4.9518
-4.71022
-4.463
-4.21046
-3.95296
-3.69088
-3.4246
-3.15444
-2.88092
-2.6046
-2.32597
-2.04553
-1.76383
-1.4814
-1.19884
-0.916386
-0.634581
-0.354267
-0.0758408
0.200223
0.473436
0.743591
1.01033
1.27308
1.53162
1.78571
2.03529
2.28021
2.52031
2.75566
2.98641
3.21265
3.43457
3.65251
3.86678
4.07762
4.2857
4.49055
4.69532
4.89112
5.11071
5.24429
-8.00385
-8.00439
-8.00517
-8.0059
-8.00651
-8.00704
-8.00751
-8.00793
-8.00832
-8.00866
-8.00898
-8.00927
-8.00955
-8.00981
-8.01007
-8.01034
-8.01062
-8.01093
-8.01129
-8.0117
-8.01219
-8.01275
-8.01342
-8.0142
-8.01509
-8.01612
-8.0173
-8.01862
-8.02011
-8.02177
-8.02362
-8.02566
-8.02791
-8.03037
-8.03306
-8.03599
-8.03917
-8.04261
-8.04632
-8.05033
-8.05463
-8.05925
-8.0642
-8.06949
-8.07514
-8.08116
-8.08757
-8.09439
-8.10162
-8.10929
-8.11741
-8.126
-8.13508
-8.14465
-8.15475
-8.16537
-8.17655
-8.18829
-8.20061
-8.21352
-8.22703
-8.24117
-8.25592
-8.27132
-8.28735
-8.30403
-8.32135
-8.33932
-8.35792
-8.37714
-8.39699
-8.41742
-8.43844
-8.46
-8.48207
-8.50462
-8.5276
-8.55096
-8.57463
-8.59856
-8.62267
-8.64687
-8.67109
-8.69523
-8.7192
-8.74288
-8.76617
-8.78895
-8.81109
-8.83246
-8.85293
-8.87235
-8.89058
-8.90748
-8.92288
-8.93662
-8.94854
-8.95846
-8.96623
-8.97167
-8.9746
-8.97482
-8.97215
-8.96637
-8.95726
-8.94458
-8.92808
-8.90749
-8.88253
-8.85288
-8.81824
-8.77826
-8.7326
-8.6809
-8.62283
-8.55806
-8.48631
-8.40719
-8.31961
-8.22322
-8.11885
-8.00685
-7.88711
-7.7596
-7.62433
-7.48133
-7.33063
-7.17229
-7.00635
-6.8329
-6.65202
-6.46379
-6.26833
-6.06567
-5.85597
-5.63947
-5.41632
-5.18673
-4.95093
-4.70919
-4.46178
-4.20902
-3.95128
-3.68894
-3.42239
-3.15188
-2.87795
-2.60123
-2.32218
-2.04133
-1.7592
-1.47633
-1.1933
-0.91048
-0.62841
-0.34781
-0.069126
0.207155
0.480572
0.750793
1.01743
1.28004
1.53837
1.79218
2.04134
2.2857
2.52516
2.75976
2.9896
3.21481
3.43555
3.65213
3.86485
4.07396
4.28006
4.48272
4.68501
4.87823
5.09501
5.22441
-8.00306
-8.00366
-8.00452
-8.00533
-8.00602
-8.00661
-8.00714
-8.00761
-8.00804
-8.00843
-8.00878
-8.0091
-8.0094
-8.00968
-8.00995
-8.01022
-8.01051
-8.01084
-8.01121
-8.01165
-8.01217
-8.01279
-8.01351
-8.01435
-8.01531
-8.01642
-8.01767
-8.01908
-8.02065
-8.0224
-8.02434
-8.02647
-8.02881
-8.03136
-8.03414
-8.03715
-8.04041
-8.04394
-8.04773
-8.05181
-8.05619
-8.06088
-8.06589
-8.07125
-8.07696
-8.08305
-8.08952
-8.0964
-8.10369
-8.11142
-8.1196
-8.12825
-8.13739
-8.14703
-8.15719
-8.16789
-8.17914
-8.19095
-8.20336
-8.21636
-8.22997
-8.2442
-8.25907
-8.27457
-8.29073
-8.30754
-8.32499
-8.3431
-8.36185
-8.38123
-8.40123
-8.42182
-8.443
-8.46472
-8.48696
-8.50967
-8.53281
-8.55632
-8.58014
-8.60421
-8.62844
-8.65276
-8.67707
-8.70129
-8.72532
-8.74905
-8.77237
-8.79516
-8.81729
-8.83863
-8.85905
-8.87841
-8.89657
-8.91338
-8.92868
-8.94232
-8.95413
-8.96394
-8.97159
-8.97693
-8.97977
-8.97992
-8.9772
-8.97139
-8.96228
-8.94961
-8.93315
-8.9126
-8.88768
-8.85808
-8.82347
-8.78349
-8.73779
-8.68602
-8.62783
-8.56291
-8.49079
-8.41043
-8.3211
-8.22354
-8.11849
-8.00583
-7.88551
-7.75751
-7.62183
-7.47848
-7.3275
-7.16894
-7.00283
-6.82925
-6.64828
-6.46
-6.26455
-6.0619
-5.85217
-5.63564
-5.41247
-5.18284
-4.94699
-4.70517
-4.45767
-4.20479
-3.94689
-3.68435
-3.41756
-3.14686
-2.87274
-2.59579
-2.31648
-2.03536
-1.75296
-1.46982
-1.1865
-0.903486
-0.621328
-0.340633
-0.0618899
0.214409
0.487805
0.757912
1.02434
1.28669
1.5447
1.79812
2.04681
2.29061
2.52944
2.76333
2.99236
3.21665
3.43636
3.65176
3.86314
4.07074
4.27512
4.47589
4.67596
4.86699
5.08094
5.20744
-8.00255
-8.00321
-8.00415
-8.00504
-8.00579
-8.00643
-8.00701
-8.00752
-8.00798
-8.00839
-8.00875
-8.00908
-8.00937
-8.00964
-8.0099
-8.01016
-8.01045
-8.01077
-8.01116
-8.01162
-8.01218
-8.01283
-8.01361
-8.0145
-8.01553
-8.0167
-8.01803
-8.01951
-8.02117
-8.023
-8.02501
-8.02722
-8.02964
-8.03227
-8.03512
-8.03821
-8.04154
-8.04513
-8.04899
-8.05314
-8.05758
-8.06232
-8.0674
-8.07281
-8.07858
-8.08472
-8.09124
-8.09817
-8.10552
-8.1133
-8.12154
-8.13025
-8.13945
-8.14915
-8.15938
-8.17015
-8.18147
-8.19337
-8.20586
-8.21895
-8.23266
-8.247
-8.26197
-8.2776
-8.29388
-8.31081
-8.3284
-8.34664
-8.36553
-8.38505
-8.40518
-8.42592
-8.44723
-8.46908
-8.49144
-8.51426
-8.53751
-8.56111
-8.58501
-8.60913
-8.6334
-8.65773
-8.68203
-8.70623
-8.7302
-8.75385
-8.77707
-8.79974
-8.82173
-8.84291
-8.86315
-8.88231
-8.90026
-8.91685
-8.93193
-8.94535
-8.95693
-8.9665
-8.97393
-8.97905
-8.98171
-8.98171
-8.97886
-8.97296
-8.96378
-8.95107
-8.93459
-8.91404
-8.88914
-8.85955
-8.82493
-8.78492
-8.73916
-8.68729
-8.62898
-8.5637
-8.49034
-8.40794
-8.31711
-8.21884
-8.11315
-7.99991
-7.87909
-7.75066
-7.61462
-7.471
-7.31981
-7.16108
-6.99488
-6.82124
-6.64025
-6.45198
-6.25653
-6.05396
-5.84435
-5.62791
-5.40482
-5.17526
-4.93946
-4.69767
-4.45018
-4.19729
-3.93935
-3.67674
-3.40984
-3.13908
-2.86493
-2.5879
-2.30853
-2.02733
-1.74486
-1.46167
-1.17831
-0.895312
-0.613234
-0.332644
-0.054047
0.222064
0.495227
0.76504
1.03111
1.29307
1.55064
1.80358
2.05173
2.29495
2.53315
2.76636
2.99464
3.21811
3.43693
3.65132
3.86157
4.0679
4.27083
4.47
4.66816
4.85742
5.06859
5.19345
-8.00238
-8.00309
-8.00413
-8.00509
-8.00589
-8.00657
-8.00717
-8.0077
-8.00816
-8.00856
-8.0089
-8.0092
-8.00946
-8.00969
-8.00991
-8.01014
-8.01041
-8.01072
-8.01111
-8.01159
-8.01217
-8.01286
-8.01368
-8.01462
-8.01571
-8.01694
-8.01834
-8.01989
-8.02161
-8.02352
-8.0256
-8.02788
-8.03037
-8.03306
-8.03598
-8.03913
-8.04252
-8.04616
-8.05008
-8.05427
-8.05875
-8.06355
-8.06867
-8.07412
-8.07994
-8.08612
-8.09269
-8.09966
-8.10706
-8.11489
-8.12318
-8.13194
-8.14119
-8.15095
-8.16125
-8.17208
-8.18348
-8.19546
-8.20803
-8.22121
-8.23501
-8.24945
-8.26452
-8.28025
-8.29663
-8.31367
-8.33137
-8.34971
-8.36869
-8.38829
-8.4085
-8.4293
-8.45065
-8.47254
-8.49492
-8.51774
-8.54096
-8.56452
-8.58836
-8.6124
-8.63656
-8.66073
-8.68485
-8.70883
-8.73258
-8.75597
-8.77891
-8.80128
-8.82296
-8.8438
-8.8637
-8.8825
-8.90007
-8.91629
-8.931
-8.94406
-8.95533
-8.9646
-8.97171
-8.97655
-8.97895
-8.97874
-8.97571
-8.96968
-8.96041
-8.94765
-8.93114
-8.91059
-8.8857
-8.85613
-8.82152
-8.78151
-8.73571
-8.68375
-8.625
-8.55815
-8.48236
-8.3983
-8.30681
-8.20801
-8.10179
-7.98808
-7.86686
-7.73811
-7.60183
-7.45803
-7.30672
-7.14795
-6.98174
-6.80815
-6.62724
-6.43907
-6.24374
-6.04132
-5.83191
-5.61568
-5.39279
-5.16342
-4.92781
-4.6862
-4.43886
-4.18612
-3.9283
-3.66579
-3.39899
-3.12834
-2.8543
-2.5774
-2.29814
-2.01708
-1.73476
-1.45173
-1.16856
-0.885796
-0.603993
-0.32371
-0.0454589
0.230268
0.50301
0.77236
1.03793
1.29937
1.55638
1.80874
2.05629
2.29888
2.53645
2.769
2.9966
3.21934
3.43739
3.65095
3.86027
4.06558
4.26733
4.46523
4.6618
4.84972
5.05824
5.18267
-8.00261
-8.00341
-8.00454
-8.00558
-8.00641
-8.00709
-8.00768
-8.00817
-8.00859
-8.00894
-8.00922
-8.00945
-8.00964
-8.0098
-8.00996
-8.01013
-8.01036
-8.01065
-8.01104
-8.01152
-8.01212
-8.01284
-8.01369
-8.01468
-8.01582
-8.01711
-8.01856
-8.02018
-8.02196
-8.02393
-8.02608
-8.02842
-8.03096
-8.03371
-8.03668
-8.03988
-8.04331
-8.047
-8.05095
-8.05518
-8.0597
-8.06452
-8.06967
-8.07516
-8.081
-8.08722
-8.09382
-8.10083
-8.10826
-8.11613
-8.12446
-8.13327
-8.14257
-8.15239
-8.16273
-8.17363
-8.18509
-8.19713
-8.20977
-8.223
-8.23686
-8.25135