/*--------------------------------*- C++ -*----------------------------------*\
| =========                 |                                                 |
| \\      /  F ield         | OpenFOAM: The Open Source CFD Toolbox           |
|  \\    /   O peration     | Version:  1.4.2                                 |
|   \\  /    A nd           | Web:      http://www.openfoam.org               |
|    \\/     M anipulation  |                                                 |
\*---------------------------------------------------------------------------*/
FoamFile
{
    version     2.0;
    format      ascii;
    class       surfaceScalarField;
    object      phi;
    location    "950";
}
// * * * * * * * * * * * * * * * * * * * * * * * * * * * * * * * * * * * * * //

dimensions      [0 3 -1 0 0 0 0];

internalField   nonuniform List<scalar> 
24170
(
3.03918e-06
9.47103e-08
2.96659e-06
7.25927e-08
2.90197e-06
6.46219e-08
2.84074e-06
6.12326e-08
2.78297e-06
5.77662e-08
2.7289e-06
5.40671e-08
2.67846e-06
5.0444e-08
2.63148e-06
4.69764e-08
2.58782e-06
4.36571e-08
2.54735e-06
4.04788e-08
2.50991e-06
3.74366e-08
2.47539e-06
3.452e-08
2.44368e-06
3.17081e-08
2.41472e-06
2.89617e-08
2.38852e-06
2.62043e-08
2.36526e-06
2.32588e-08
2.34548e-06
1.97817e-08
9.62801e-09
2.33585e-06
3.46199e-06
8.91626e-08
3.45386e-06
8.07235e-08
3.44442e-06
7.4067e-08
3.43379e-06
7.1859e-08
3.42224e-06
6.93149e-08
3.41017e-06
6.61401e-08
3.3978e-06
6.28161e-08
3.38527e-06
5.95036e-08
3.37271e-06
5.62158e-08
3.36023e-06
5.29556e-08
3.34795e-06
4.97248e-08
3.33595e-06
4.65122e-08
3.32438e-06
4.32845e-08
3.31337e-06
3.99716e-08
3.30314e-06
3.64281e-08
3.29407e-06
3.23312e-08
3.28699e-06
2.68597e-08
1.73733e-08
3.27925e-06
3.82433e-06
7.70288e-08
3.8263e-06
7.87484e-08
3.82561e-06
7.47646e-08
3.82406e-06
7.34078e-08
3.82188e-06
7.14884e-08
3.81926e-06
6.87649e-08
3.81633e-06
6.57428e-08
3.8132e-06
6.26341e-08
3.80994e-06
5.94813e-08
3.80659e-06
5.62989e-08
3.80323e-06
5.30915e-08
3.79989e-06
4.98436e-08
3.79667e-06
4.65108e-08
3.79364e-06
4.30039e-08
3.79091e-06
3.9154e-08
3.7886e-06
3.46406e-08
3.78658e-06
2.88785e-08
2.08354e-08
3.78312e-06
4.2169e-06
6.46894e-08
4.22212e-06
7.35244e-08
4.2243e-06
7.25839e-08
4.22556e-06
7.2148e-08
4.22628e-06
7.07719e-08
4.22659e-06
6.84557e-08
4.22663e-06
6.57059e-08
4.22649e-06
6.27681e-08
4.22625e-06
5.97182e-08
4.22597e-06
5.65873e-08
4.22567e-06
5.3386e-08
4.22541e-06
5.01e-08
4.22524e-06
4.66833e-08
4.2252e-06
4.30466e-08
4.22532e-06
3.90362e-08
4.22555e-06
3.44052e-08
4.2256e-06
2.88287e-08
2.20273e-08
4.22441e-06
4.6487e-06
5.32993e-08
4.65545e-06
6.67747e-08
4.65932e-06
6.87112e-08
4.66212e-06
6.93456e-08
4.66432e-06
6.85692e-08
4.6661e-06
6.66798e-08
4.66759e-06
6.42204e-08
4.66888e-06
6.14701e-08
4.67007e-06
5.85374e-08
4.67118e-06
5.54718e-08
4.67227e-06
5.22932e-08
4.67338e-06
4.8993e-08
4.67453e-06
4.55315e-08
4.67575e-06
4.18327e-08
4.677e-06
3.77779e-08
4.6782e-06
3.32079e-08
4.67904e-06
2.79869e-08
2.21696e-08
4.6789e-06
5.12456e-06
4.33381e-08
5.132e-06
5.93302e-08
5.13708e-06
6.36328e-08
5.14109e-06
6.53399e-08
5.14441e-06
6.52453e-08
5.14724e-06
6.38501e-08
5.14973e-06
6.17312e-08
5.15199e-06
5.92071e-08
5.1541e-06
5.64237e-08
5.15612e-06
5.34541e-08
5.15808e-06
5.03313e-08
5.16002e-06
4.70568e-08
5.16195e-06
4.36031e-08
5.16387e-06
3.99157e-08
5.16573e-06
3.59174e-08
5.16741e-06
3.15259e-08
5.16867e-06
2.67225e-08
2.16842e-08
5.16916e-06
5.64939e-06
3.49575e-08
5.65697e-06
5.17462e-08
5.66284e-06
5.77612e-08
5.66779e-06
6.03933e-08
5.67207e-06
6.09676e-08
5.67582e-06
6.00978e-08
5.67918e-06
5.83675e-08
5.68227e-06
5.61217e-08
5.68516e-06
5.35365e-08
5.6879e-06
5.07079e-08
5.69055e-06
4.76853e-08
5.69312e-06
4.4485e-08
5.69563e-06
4.10972e-08
5.69805e-06
3.74932e-08
5.70033e-06
3.3636e-08
5.70235e-06
2.95023e-08
5.70394e-06
2.51365e-08
2.07373e-08
5.70489e-06
4.4112e-06
2.98642e-08
4.41651e-06
4.64395e-08
4.42103e-06
5.32409e-08
4.42498e-06
5.64404e-08
4.42851e-06
5.74395e-08
4.43169e-06
5.69245e-08
4.43458e-06
5.54774e-08
4.43725e-06
5.3449e-08
4.43976e-06
5.10301e-08
4.44213e-06
4.83299e-08
4.44441e-06
4.54092e-08
4.4466e-06
4.22955e-08
4.4487e-06
3.89926e-08
4.45071e-06
3.54904e-08
4.45256e-06
3.17774e-08
4.45421e-06
2.78614e-08
4.45553e-06
2.38102e-08
1.98118e-08
4.45646e-06
5.1446e-06
2.51234e-08
5.15008e-06
4.0958e-08
5.15508e-06
4.82419e-08
5.15964e-06
5.18787e-08
5.16382e-06
5.32612e-08
5.16765e-06
5.30931e-08
5.17119e-06
5.19389e-08
5.17449e-06
5.01486e-08
5.1776e-06
4.7923e-08
5.18054e-06
4.53824e-08
5.18335e-06
4.25981e-08
5.18604e-06
3.96091e-08
5.1886e-06
3.64335e-08
5.19101e-06
3.30797e-08
5.19323e-06
2.95588e-08
5.19519e-06
2.59018e-08
5.19681e-06
2.21872e-08
1.85847e-08
5.19804e-06
6.0001e-06
2.08127e-08
6.00563e-06
3.54352e-08
6.01099e-06
4.28738e-08
6.0161e-06
4.67736e-08
6.0209e-06
4.84574e-08
6.0254e-06
4.86002e-08
6.02961e-06
4.77288e-08
6.03357e-06
4.61841e-08
6.03732e-06
4.4171e-08
6.04089e-06
4.18174e-08
6.04428e-06
3.92037e-08
6.04751e-06
3.63799e-08
6.05057e-06
3.33777e-08
6.05343e-06
3.02218e-08
6.05604e-06
2.69413e-08
6.05836e-06
2.35818e-08
6.06033e-06
2.02224e-08
1.70095e-08
6.0619e-06
6.99811e-06
1.69689e-08
7.00355e-06
2.99993e-08
7.00917e-06
3.72494e-08
7.01473e-06
4.12184e-08
7.0201e-06
4.30878e-08
7.02522e-06
4.34768e-08
7.03009e-06
4.28574e-08
7.03472e-06
4.15508e-08
7.03913e-06
3.97594e-08
7.04334e-06
3.76143e-08
7.04734e-06
3.52025e-08
7.05114e-06
3.25833e-08
7.05471e-06
2.98e-08
7.05805e-06
2.68901e-08
7.06109e-06
2.38943e-08
7.06381e-06
2.08652e-08
7.06616e-06
1.78755e-08
1.50464e-08
7.06812e-06
8.1624e-06
1.35788e-08
8.16765e-06
2.47545e-08
8.17342e-06
3.14809e-08
8.17932e-06
3.53147e-08
8.18518e-06
3.72334e-08
8.19087e-06
3.77814e-08
8.19636e-06
3.73653e-08
8.20164e-06
3.62754e-08
8.20669e-06
3.47046e-08
8.21153e-06
3.27825e-08
8.21613e-06
3.05992e-08
8.22049e-06
2.82204e-08
8.22459e-06
2.56971e-08
8.22841e-06
2.30752e-08
8.2319e-06
2.0401e-08
8.23504e-06
1.77272e-08
8.2378e-06
1.51167e-08
1.26662e-08
8.24018e-06
9.52072e-06
1.05889e-08
9.52571e-06
1.97642e-08
9.53152e-06
2.56641e-08
9.53768e-06
2.91558e-08
9.54394e-06
3.09776e-08
9.55014e-06
3.15835e-08
9.55619e-06
3.13093e-08
9.56206e-06
3.04051e-08
9.56772e-06
2.90463e-08
9.57315e-06
2.73557e-08
9.57833e-06
2.54224e-08
9.58323e-06
2.33139e-08
9.58784e-06
2.1085e-08
9.59213e-06
1.87846e-08
9.59608e-06
1.64592e-08
9.59965e-06
1.41571e-08
9.60283e-06
1.19299e-08
9.85293e-09
9.60565e-06
1.11054e-05
7.92151e-09
1.11101e-05
1.50409e-08
1.11159e-05
1.98629e-08
1.11222e-05
2.28111e-08
1.11288e-05
2.43878e-08
1.11355e-05
2.49445e-08
1.1142e-05
2.47438e-08
1.11485e-05
2.39887e-08
1.11547e-05
2.28291e-08
1.11607e-05
2.13749e-08
1.11664e-05
1.97086e-08
1.11718e-05
1.78951e-08
1.11769e-05
1.59878e-08
1.11816e-05
1.40336e-08
1.1186e-05
1.20754e-08
1.119e-05
1.01542e-08
1.11936e-05
8.31038e-09
6.60161e-09
1.11969e-05
1.29541e-05
5.48713e-09
1.29586e-05
1.05424e-08
1.29643e-05
1.40923e-08
1.29708e-05
1.63104e-08
1.29777e-05
1.74982e-08
1.29848e-05
1.78989e-08
1.29918e-05
1.77015e-08
1.29987e-05
1.70566e-08
1.30055e-05
1.60815e-08
1.3012e-05
1.48663e-08
1.30182e-05
1.34811e-08
1.30241e-05
1.19826e-08
1.30297e-05
1.04181e-08
1.30349e-05
8.82833e-09
1.30397e-05
7.24941e-09
1.30442e-05
5.71383e-09
1.30482e-05
4.25217e-09
2.90767e-09
1.30519e-05
1.51108e-05
3.18582e-09
1.51151e-05
6.16691e-09
1.51209e-05
8.29507e-09
1.51276e-05
9.61908e-09
1.51348e-05
1.02856e-08
1.51423e-05
1.04317e-08
1.51498e-05
1.01713e-08
1.51573e-05
9.59956e-09
1.51646e-05
8.7949e-09
1.51716e-05
7.82073e-09
1.51784e-05
6.72882e-09
1.51848e-05
5.56232e-09
1.51908e-05
4.35787e-09
1.51965e-05
3.14696e-09
1.52018e-05
1.95677e-09
1.52067e-05
8.1104e-10
1.52112e-05
-2.68407e-10
-1.24957e-09
1.52154e-05
1.76267e-05
8.92665e-10
1.76312e-05
1.72758e-09
1.76372e-05
2.2976e-09
1.76442e-05
2.58831e-09
1.76519e-05
2.62286e-09
1.76599e-05
2.43517e-09
1.7668e-05
2.06135e-09
1.7676e-05
1.53719e-09
1.76839e-05
8.96451e-10
1.76916e-05
1.70045e-10
1.76989e-05
-6.14077e-10
1.77059e-05
-1.43079e-09
1.77125e-05
-2.25767e-09
1.77188e-05
-3.07495e-09
1.77246e-05
-3.86543e-09
1.773e-05
-4.6142e-09
1.7735e-05
-5.30714e-09
-5.92131e-09
1.77397e-05
1.78284e-05
-1.28668e-09
1.78326e-05
-2.50659e-09
1.78383e-05
-3.43749e-09
1.78451e-05
-4.14618e-09
1.78524e-05
-4.72371e-09
1.78601e-05
-5.23483e-09
1.78679e-05
-5.7181e-09
1.78756e-05
-6.19543e-09
1.78832e-05
-6.67709e-09
1.78905e-05
-7.16495e-09
1.78976e-05
-7.65531e-09
1.79043e-05
-8.14138e-09
1.79106e-05
-8.61493e-09
1.79166e-05
-9.06741e-09
1.79222e-05
-9.49068e-09
1.79275e-05
-9.87717e-09
1.79324e-05
-1.02188e-08
-1.04997e-08
1.7937e-05
1.58834e-05
-3.34088e-09
1.58873e-05
-6.43716e-09
1.58926e-05
-8.67305e-09
1.58986e-05
-1.02078e-08
1.59052e-05
-1.12665e-08
1.59119e-05
-1.20105e-08
1.59188e-05
-1.25468e-08
1.59255e-05
-1.29489e-08
1.59321e-05
-1.32659e-08
1.59385e-05
-1.35277e-08
1.59446e-05
-1.3751e-08
1.59504e-05
-1.39441e-08
1.59559e-05
-1.41104e-08
1.5961e-05
-1.425e-08
1.59659e-05
-1.43618e-08
1.59705e-05
-1.44434e-08
1.59748e-05
-1.44912e-08
-1.44942e-08
1.59788e-05
1.41508e-05
-5.47734e-09
1.41548e-05
-1.0399e-08
1.41599e-05
-1.37693e-08
1.41656e-05
-1.59481e-08
1.41717e-05
-1.73417e-08
1.41779e-05
-1.82096e-08
1.4184e-05
-1.87226e-08
1.41901e-05
-1.9002e-08
1.4196e-05
-1.91304e-08
1.42016e-05
-1.91606e-08
1.4207e-05
-1.91252e-08
1.42121e-05
-1.90443e-08
1.42169e-05
-1.89296e-08
1.42214e-05
-1.8788e-08
1.42257e-05
-1.86233e-08
1.42297e-05
-1.84372e-08
1.42334e-05
-1.8229e-08
-1.79916e-08
1.42369e-05
1.26074e-05
-7.88782e-09
1.26117e-05
-1.4644e-08
1.26169e-05
-1.89488e-08
1.26225e-05
-2.15642e-08
1.26283e-05
-2.31316e-08
1.26341e-05
-2.40013e-08
1.26397e-05
-2.44027e-08
1.26452e-05
-2.45011e-08
1.26505e-05
-2.44068e-08
1.26555e-05
-2.41894e-08
1.26603e-05
-2.3893e-08
1.26648e-05
-2.35455e-08
1.2669e-05
-2.31646e-08
1.2673e-05
-2.27613e-08
1.26767e-05
-2.23429e-08
1.26802e-05
-2.19137e-08
1.26835e-05
-2.14757e-08
-2.1025e-08
1.26865e-05
1.12327e-05
-1.07921e-08
1.12374e-05
-1.93765e-08
1.12428e-05
-2.4331e-08
1.12484e-05
-2.71375e-08
1.1254e-05
-2.87013e-08
1.12594e-05
-2.94391e-08
1.12646e-05
-2.96331e-08
1.12696e-05
-2.94873e-08
1.12743e-05
-2.9132e-08
1.12788e-05
-2.86472e-08
1.1283e-05
-2.80836e-08
1.12869e-05
-2.74731e-08
1.12906e-05
-2.68362e-08
1.1294e-05
-2.61861e-08
1.12972e-05
-2.55316e-08
1.13002e-05
-2.48788e-08
1.13029e-05
-2.42317e-08
-2.35897e-08
1.13055e-05
1.00083e-05
-1.44625e-08
1.00137e-05
-2.47446e-08
1.00193e-05
-2.99285e-08
1.00248e-05
-3.2638e-08
1.00301e-05
-3.40053e-08
1.00351e-05
-3.44705e-08
1.00398e-05
-3.43615e-08
1.00442e-05
-3.39123e-08
1.00484e-05
-3.3263e-08
1.00522e-05
-3.24966e-08
1.00558e-05
-3.16645e-08
1.00591e-05
-3.07988e-08
1.00622e-05
-2.99198e-08
1.00651e-05
-2.90402e-08
1.00677e-05
-2.81688e-08
1.00701e-05
-2.73122e-08
1.00724e-05
-2.6476e-08
-2.56637e-08
1.00745e-05
8.91786e-06
-1.92244e-08
8.92391e-06
-3.07963e-08
8.9296e-06
-3.56198e-08
8.93488e-06
-3.79126e-08
8.93976e-06
-3.88874e-08
8.94424e-06
-3.89486e-08
8.94833e-06
-3.84582e-08
8.95209e-06
-3.76652e-08
8.95553e-06
-3.67067e-08
8.95869e-06
-3.56598e-08
8.9616e-06
-3.45716e-08
8.96427e-06
-3.34706e-08
8.96673e-06
-3.23735e-08
8.96898e-06
-3.12903e-08
8.97104e-06
-3.02277e-08
8.97292e-06
-2.91912e-08
8.97463e-06
-2.81876e-08
-2.72257e-08
8.97619e-06
7.94686e-06
-2.54188e-08
7.95348e-06
-3.74104e-08
7.95898e-06
-4.11192e-08
7.96374e-06
-4.26805e-08
7.96795e-06
-4.30969e-08
7.97167e-06
-4.26614e-08
7.97496e-06
-4.17499e-08
7.9779e-06
-4.06076e-08
7.98055e-06
-3.93545e-08
7.98294e-06
-3.80535e-08
7.98511e-06
-3.67415e-08
7.98708e-06
-3.54402e-08
7.98887e-06
-3.41608e-08
7.99049e-06
-3.29091e-08
7.99195e-06
-3.16873e-08
7.99325e-06
-3.0498e-08
7.99441e-06
-2.93476e-08
-2.82504e-08
7.99544e-06
7.08223e-06
-3.33149e-08
7.08902e-06
-4.42014e-08
7.09386e-06
-4.59572e-08
7.09773e-06
-4.65508e-08
7.10095e-06
-4.63249e-08
7.10367e-06
-4.53734e-08
7.10598e-06
-4.40594e-08
7.10797e-06
-4.26052e-08
7.10972e-06
-4.11015e-08
7.11126e-06
-3.95906e-08
7.11261e-06
-3.80974e-08
7.11381e-06
-3.66361e-08
7.11486e-06
-3.52128e-08
7.11578e-06
-3.38283e-08
7.11657e-06
-3.248e-08
7.11724e-06
-3.11644e-08
7.11778e-06
-2.98829e-08
-2.86487e-08
7.11817e-06
6.31217e-06
-4.29768e-08
6.31832e-06
-5.03492e-08
6.32184e-06
-4.9471e-08
6.32434e-06
-4.90595e-08
6.32624e-06
-4.82234e-08
6.32767e-06
-4.6802e-08
6.32875e-06
-4.51372e-08
6.32956e-06
-4.34204e-08
6.33017e-06
-4.17114e-08
6.33062e-06
-4.00334e-08
6.33092e-06
-3.84008e-08
6.33111e-06
-3.68208e-08
6.33119e-06
-3.52944e-08
6.33118e-06
-3.38177e-08
6.33108e-06
-3.23823e-08
6.33089e-06
-3.09751e-08
6.33059e-06
-2.9583e-08
-2.81939e-08
6.33014e-06
5.62586e-06
-5.39349e-08
5.62969e-06
-5.41772e-08
5.63084e-06
-5.06278e-08
5.63117e-06
-4.93827e-08
5.63091e-06
-4.79679e-08
5.63023e-06
-4.61167e-08
5.62925e-06
-4.41586e-08
5.62807e-06
-4.2239e-08
5.62674e-06
-4.03831e-08
5.6253e-06
-3.85952e-08
5.62378e-06
-3.6879e-08
5.62219e-06
-3.52349e-08
5.62056e-06
-3.36594e-08
5.61888e-06
-3.21453e-08
5.61718e-06
-3.06797e-08
5.61544e-06
-2.92379e-08
5.61364e-06
-2.77792e-08
-2.61814e-08
5.61163e-06
5.01053e-06
-6.21607e-08
5.00697e-06
-5.06114e-08
5.00192e-06
-4.55822e-08
4.99617e-06
-4.36262e-08
4.98987e-06
-4.16759e-08
4.98331e-06
-3.95516e-08
4.97663e-06
-3.7476e-08
4.9699e-06
-3.55175e-08
4.96319e-06
-3.36705e-08
4.95652e-06
-3.19246e-08
4.94992e-06
-3.02735e-08
4.94339e-06
-2.87117e-08
4.93697e-06
-2.72326e-08
4.93065e-06
-2.58283e-08
4.92446e-06
-2.44869e-08
4.9184e-06
-2.31833e-08
4.91248e-06
-2.18589e-08
-2.00733e-08
4.90637e-06
4.39439e-06
4.34378e-06
4.29819e-06
4.25457e-06
4.21289e-06
4.17334e-06
4.13587e-06
4.10035e-06
4.06668e-06
4.03475e-06
4.00448e-06
3.97577e-06
3.94854e-06
3.92271e-06
3.89822e-06
3.87504e-06
3.85318e-06
3.8331e-06
7.14406e-10
-7.14402e-10
2.77894e-09
-2.06484e-09
5.84401e-09
-3.06536e-09
9.46559e-09
-3.62181e-09
1.32604e-08
-3.79501e-09
1.69398e-08
-3.67957e-09
2.03033e-08
-3.36369e-09
2.32216e-08
-2.91844e-09
2.56201e-08
-2.39866e-09
2.74669e-08
-1.84695e-09
2.87632e-08
-1.2964e-09
2.95325e-08
-7.69454e-10
2.98091e-08
-2.76652e-10
2.96316e-08
1.77356e-10
2.9043e-08
5.88499e-10
2.80842e-08
9.58715e-10
2.67857e-08
1.2984e-09
2.51675e-08
1.61813e-09
2.32382e-08
1.92922e-09
2.0993e-08
2.24501e-09
1.83941e-08
2.59887e-09
1.5382e-08
3.01192e-09
1.18735e-08
3.50833e-09
7.7562e-09
4.11718e-09
2.90619e-09
4.84984e-09
-2.7941e-09
5.7001e-09
-9.44554e-09
6.65122e-09
-1.71223e-08
7.67646e-09
-2.58834e-08
8.76086e-09
-3.57719e-08
9.88817e-09
-4.68093e-08
1.10371e-08
-5.89967e-08
1.2187e-08
-7.23172e-08
1.33202e-08
-8.67397e-08
1.44221e-08
-1.02222e-07
1.54822e-08
-1.18716e-07
1.64931e-08
-1.36166e-07
1.74503e-08
-1.54519e-07
1.83519e-08
-1.73717e-07
1.91977e-08
-1.93706e-07
1.99891e-08
-2.14435e-07
2.07285e-08
-2.35855e-07
2.14191e-08
-2.5792e-07
2.20647e-08
-2.80589e-07
2.26691e-08
-3.03826e-07
2.32365e-08
-3.27598e-07
2.3771e-08
-3.51875e-07
2.42765e-08
-3.76632e-07
2.47566e-08
-4.01847e-07
2.52148e-08
-4.27502e-07
2.56541e-08
-4.53579e-07
2.60773e-08
-4.80067e-07
2.64869e-08
-5.06952e-07
2.68848e-08
-5.34225e-07
2.72727e-08
-5.61877e-07
2.76521e-08
-5.89902e-07
2.80239e-08
-6.18291e-07
2.8389e-08
-6.47039e-07
2.87477e-08
-6.7614e-07
2.91002e-08
-7.05586e-07
2.94465e-08
-7.35373e-07
2.9786e-08
-7.65491e-07
3.01182e-08
-7.95933e-07
3.04421e-08
-8.26689e-07
3.07564e-08
-8.57749e-07
3.10596e-08
-8.89098e-07
3.13499e-08
-9.20723e-07
3.16251e-08
-9.52605e-07
3.18826e-08
-9.84725e-07
3.21194e-08
-1.01706e-06
3.23324e-08
-1.04957e-06
3.25181e-08
-1.08225e-06
3.26738e-08
-1.11505e-06
3.27985e-08
-1.14794e-06
3.28961e-08
-1.18092e-06
3.29781e-08
-1.21399e-06
3.30668e-08
-1.2472e-06
3.32096e-08
-1.28077e-06
3.35776e-08
-1.31462e-06
3.38428e-08
-1.34847e-06
3.38493e-08
-1.38235e-06
3.38845e-08
-1.41628e-06
3.39282e-08
-1.45024e-06
3.39621e-08
-1.48422e-06
3.3976e-08
-1.51818e-06
3.39645e-08
-1.55211e-06
3.39239e-08
-1.58596e-06
3.38522e-08
-1.61971e-06
3.37476e-08
-1.65332e-06
3.36089e-08
-1.68675e-06
3.34353e-08
-1.71998e-06
3.32258e-08
-1.75296e-06
3.29797e-08
-1.78565e-06
3.26965e-08
-1.81803e-06
3.23756e-08
-1.85004e-06
3.20165e-08
-1.88166e-06
3.16186e-08
-1.91284e-06
3.11813e-08
-1.94354e-06
3.07039e-08
-1.97373e-06
3.01856e-08
-2.00336e-06
2.96253e-08
-2.03238e-06
2.90214e-08
-2.06075e-06
2.83722e-08
-2.08843e-06
2.76756e-08
-2.11536e-06
2.69293e-08
-2.14149e-06
2.61304e-08
-2.16676e-06
2.52759e-08
-2.19113e-06
2.43625e-08
-2.21451e-06
2.33866e-08
-2.23686e-06
2.23448e-08
-2.25809e-06
2.12335e-08
-2.27814e-06
2.00496e-08
-2.29693e-06
1.87906e-08
-2.31439e-06
1.74546e-08
-2.33043e-06
1.60411e-08
-2.34498e-06
1.45506e-08
-2.35796e-06
1.29851e-08
-2.36931e-06
1.1348e-08
-2.37896e-06
9.64409e-09
-2.38683e-06
7.8794e-09
-2.3929e-06
6.06068e-09
-2.39709e-06
4.1948e-09
-2.39938e-06
2.28742e-09
-2.39972e-06
3.38988e-10
-2.39808e-06
-1.63962e-09
-2.39445e-06
-3.62268e-09
-2.38886e-06
-5.59711e-09
-2.38129e-06
-7.56228e-09
-2.37178e-06
-9.51811e-09
-2.36031e-06
-1.14653e-08
-2.3469e-06
-1.34047e-08
-2.33157e-06
-1.53369e-08
-2.3143e-06
-1.72621e-08
-2.29513e-06
-1.91796e-08
-2.27404e-06
-2.10885e-08
-2.25105e-06
-2.29872e-08
-2.22618e-06
-2.48741e-08
-2.19943e-06
-2.67471e-08
-2.17082e-06
-2.86036e-08
-2.14038e-06
-3.04404e-08
-2.10813e-06
-3.2254e-08
-2.07409e-06
-3.40402e-08
-2.03829e-06
-3.57945e-08
-2.00078e-06
-3.75121e-08
-1.96159e-06
-3.9188e-08
-1.92078e-06
-4.08166e-08
-1.87839e-06
-4.23914e-08
-1.83448e-06
-4.39049e-08
-1.78913e-06
-4.53501e-08
-1.74241e-06
-4.67209e-08
-1.6944e-06
-4.80118e-08
-1.64519e-06
-4.92169e-08
-1.59486e-06
-5.03298e-08
-1.54352e-06
-5.13447e-08
-1.49126e-06
-5.22572e-08
-1.4382e-06
-5.30621e-08
-1.38444e-06
-5.37531e-08
-1.33012e-06
-5.4325e-08
-1.27534e-06
-5.47754e-08
-1.22024e-06
-5.51045e-08
-1.16492e-06
-5.53128e-08
-1.10953e-06
-5.53965e-08
-1.05418e-06
-5.53515e-08
-9.98994e-07
-5.518e-08
-9.44106e-07
-5.48856e-08
-8.8963e-07
-5.44753e-08
-8.35678e-07
-5.39518e-08
-7.8237e-07
-5.33075e-08
-7.2982e-07
-5.25454e-08
-6.78134e-07
-5.16825e-08
-6.27424e-07
-5.07116e-08
-5.77823e-07
-4.9601e-08
-5.29461e-07
-4.83555e-08
-4.82493e-07
-4.69639e-08
-4.37144e-07
-4.53544e-08
-3.93602e-07
-4.35436e-08
-3.52192e-07
-4.14087e-08
-3.12835e-07
-3.93567e-08
-2.76187e-07
-3.66462e-08
-2.38702e-07
-3.74864e-08
-3.43514e-08
-2.04352e-07
2.00848e-09
-2.72318e-09
5.54533e-09
-5.60218e-09
9.48324e-09
-7.00363e-09
1.32881e-08
-7.42696e-09
1.67172e-08
-7.22437e-09
1.96561e-08
-6.61867e-09
2.20508e-08
-5.75858e-09
2.38799e-08
-4.74774e-09
2.51399e-08
-3.65892e-09
2.58337e-08
-2.54084e-09
2.59603e-08
-1.42323e-09
2.55094e-08
-3.18728e-10
2.44762e-08
7.5641e-10
2.28677e-08
1.78568e-09
2.06911e-08
2.76492e-09
1.79443e-08
3.70535e-09
1.46113e-08
4.63131e-09
1.06719e-08
5.55738e-09
6.08927e-09
6.51164e-09
8.0808e-10
7.52603e-09
-5.22105e-09
8.62781e-09
-1.20435e-08
9.83411e-09
-1.97107e-08
1.11753e-08
-2.82618e-08
1.2668e-08
-3.772e-08
1.43077e-08
-4.80936e-08
1.60734e-08
-5.9378e-08
1.79353e-08
-7.15674e-08
1.98655e-08
-8.46453e-08
2.18383e-08
-9.85848e-08
2.38272e-08
-1.13355e-07
2.58066e-08
-1.28921e-07
2.77531e-08
-1.45249e-07
2.9647e-08
-1.623e-07
3.14727e-08
-1.80037e-07
3.32188e-08
-1.98422e-07
3.48779e-08
-2.17418e-07
3.64459e-08
-2.36989e-07
3.79219e-08
-2.571e-07
3.93076e-08
-2.77717e-07
4.06062e-08
-2.98812e-07
4.18229e-08
-3.20357e-07
4.29635e-08
-3.42328e-07
4.40346e-08
-3.64703e-07
4.50433e-08
-3.87463e-07
4.59964e-08
-4.10594e-07
4.69009e-08
-4.34081e-07
4.77633e-08
-4.57915e-07
4.85897e-08
-4.82086e-07
4.93855e-08
-5.06589e-07
5.01557e-08
-5.31417e-07
5.09048e-08
-5.56567e-07
5.16364e-08
-5.82036e-07
5.23535e-08
-6.07823e-07
5.30588e-08
-6.33926e-07
5.37542e-08
-6.60343e-07
5.4441e-08
-6.87075e-07
5.51202e-08
-7.1412e-07
5.57921e-08
-7.41477e-07
5.64567e-08
-7.69144e-07
5.71135e-08
-7.97119e-07
5.77615e-08
-8.254e-07
5.83995e-08
-8.53984e-07
5.90258e-08
-8.82866e-07
5.96386e-08
-9.12042e-07
6.02354e-08
-9.41505e-07
6.08139e-08
-9.71251e-07
6.13714e-08
-1.00127e-06
6.19049e-08
-1.03157e-06
6.24119e-08
-1.06212e-06
6.28895e-08
-1.09294e-06
6.33356e-08
-1.12401e-06
6.37486e-08
-1.15534e-06
6.4128e-08
-1.18692e-06
6.44751e-08
-1.21874e-06
6.47933e-08
-1.25076e-06
6.50905e-08
-1.28294e-06
6.53899e-08
-1.31509e-06
6.57235e-08
-1.34725e-06
6.60029e-08
-1.37957e-06
6.61713e-08
-1.41198e-06
6.62969e-08
-1.44444e-06
6.63883e-08
-1.47692e-06
6.64388e-08
-1.50939e-06
6.64412e-08
-1.54181e-06
6.63896e-08
-1.57417e-06
6.62797e-08
-1.60642e-06
6.61078e-08
-1.63855e-06
6.58712e-08
-1.6705e-06
6.55676e-08
-1.70226e-06
6.51949e-08
-1.73379e-06
6.47518e-08
-1.76504e-06
6.42367e-08
-1.79599e-06
6.36484e-08
-1.8266e-06
6.29859e-08
-1.85684e-06
6.2248e-08
-1.88665e-06
6.14337e-08
-1.91601e-06
6.05416e-08
-1.94488e-06
5.95705e-08
-1.97321e-06
5.85184e-08
-2.00097e-06
5.73832e-08
-2.02811e-06
5.61621e-08
-2.05459e-06
5.48516e-08
-2.08036e-06
5.34477e-08
-2.10538e-06
5.19456e-08
-2.12959e-06
5.03399e-08
-2.15294e-06
4.86245e-08
-2.17537e-06
4.6793e-08
-2.19682e-06
4.48384e-08
-2.21723e-06
4.27538e-08
-2.23653e-06
4.05326e-08
-2.25465e-06
3.81686e-08
-2.27151e-06
3.56569e-08
-2.28705e-06
3.29938e-08
-2.30119e-06
3.01781e-08
-2.31385e-06
2.72105e-08
-2.32496e-06
2.40948e-08
-2.33445e-06
2.08371e-08
-2.34225e-06
1.74466e-08
-2.34831e-06
1.39346e-08
-2.35256e-06
1.03138e-08
-2.35496e-06
6.59721e-09
-2.35547e-06
2.79604e-09
-2.35405e-06
-1.0821e-09
-2.35069e-06
-5.00266e-09
-2.34539e-06
-8.92285e-09
-2.33815e-06
-1.28296e-08
-2.329e-06
-1.67191e-08
-2.31792e-06
-2.05909e-08
-2.30494e-06
-2.4446e-08
-2.29006e-06
-2.82853e-08
-2.27329e-06
-3.21094e-08
-2.25464e-06
-3.59183e-08
-2.23411e-06
-3.97111e-08
-2.21171e-06
-4.34861e-08
-2.18745e-06
-4.72405e-08
-2.16136e-06
-5.09705e-08
-2.13343e-06
-5.46717e-08
-2.1037e-06
-5.83385e-08
-2.07217e-06
-6.19645e-08
-2.03888e-06
-6.55426e-08
-2.00386e-06
-6.90645e-08
-1.96713e-06
-7.25212e-08
-1.92874e-06
-7.5903e-08
-1.88873e-06
-7.91997e-08
-1.84714e-06
-8.24e-08
-1.80404e-06
-8.54916e-08
-1.75949e-06
-8.8461e-08
-1.71354e-06
-9.12947e-08
-1.66628e-06
-9.39799e-08
-1.61779e-06
-9.65044e-08
-1.56815e-06
-9.88562e-08
-1.51745e-06
-1.01025e-07
-1.4658e-06
-1.03e-07
-1.41328e-06
-1.04774e-07
-1.36001e-06
-1.06335e-07
-1.30608e-06
-1.07673e-07
-1.25163e-06
-1.0878e-07
-1.19675e-06
-1.0965e-07
-1.14158e-06
-1.10283e-07
-1.08621e-06
-1.10679e-07
-1.03077e-06
-1.10836e-07
-9.75371e-07
-1.1075e-07
-9.20129e-07
-1.10422e-07
-8.65156e-07
-1.0986e-07
-8.10555e-07
-1.09078e-07
-7.56426e-07
-1.0808e-07
-7.02871e-07
-1.06863e-07
-6.49988e-07
-1.05433e-07
-5.97863e-07
-1.03809e-07
-5.46587e-07
-1.01986e-07
-4.96261e-07
-9.99281e-08
-4.46984e-07
-9.76383e-08
-3.98864e-07
-9.50841e-08
-3.52037e-07
-9.21808e-08
-3.06635e-07
-8.89459e-08
-2.62781e-07
-8.52613e-08
-2.20574e-07
-8.15675e-08
-1.79764e-07
-7.74552e-08
-1.40282e-07
-7.69666e-08
-7.32287e-08
-1.01403e-07
2.51621e-09
-5.23965e-09
6.04061e-09
-9.12699e-09
9.32621e-09
-1.02895e-08
1.20768e-08
-1.01777e-08
1.4247e-08
-9.39471e-09
1.58448e-08
-8.21664e-09
1.68809e-08
-6.79477e-09
1.73564e-08
-5.22337e-09
1.72629e-08
-3.56546e-09
1.65819e-08
-1.85996e-09
1.52845e-08
-1.25933e-10
1.33541e-08
1.61161e-09
1.07884e-08
3.32207e-09
7.57952e-09
4.99443e-09
3.70833e-09
6.63604e-09
-8.49664e-10
8.26327e-09
-6.11329e-09
9.89486e-09
-1.21017e-08
1.15457e-08
-1.88413e-08
1.32512e-08
-2.63559e-08
1.50405e-08
-3.4663e-08
1.69349e-08
-4.37781e-08
1.89491e-08
-5.36968e-08
2.10939e-08
-6.43977e-08
2.33688e-08
-7.58513e-08
2.57612e-08
-8.80264e-08
2.82483e-08
-1.00893e-07
3.08021e-08
-1.14422e-07
3.33939e-08
-1.2858e-07
3.59962e-08
-1.43336e-07
3.85826e-08
-1.58658e-07
4.1129e-08
-1.7452e-07
4.36144e-08
-1.90894e-07
4.60212e-08
-2.07758e-07
4.83359e-08
-2.25088e-07
5.0549e-08
-2.42865e-07
5.26547e-08
-2.6107e-07
5.46506e-08
-2.79686e-07
5.65375e-08
-2.98697e-07
5.83185e-08
-3.1809e-07
5.99985e-08
-3.37851e-07
6.15842e-08
-3.57971e-07
6.30831e-08
-3.7844e-07
6.45033e-08
-3.9925e-07
6.58533e-08
-4.20396e-07
6.71413e-08
-4.4187e-07
6.83755e-08
-4.63671e-07
6.95635e-08
-4.85794e-07
7.07123e-08
-5.08237e-07
7.18284e-08
-5.30999e-07
7.29174e-08
-5.54079e-07
7.39842e-08
-5.77476e-07
7.5033e-08
-6.0119e-07
7.60672e-08
-6.25221e-07
7.70895e-08
-6.49569e-07
7.8102e-08
-6.74234e-07
7.91059e-08
-6.99216e-07
8.0102e-08
-7.24514e-07
8.10905e-08
-7.50129e-07
8.20708e-08
-7.76057e-07
8.30422e-08
-8.02299e-07
8.4003e-08
-8.28851e-07
8.49516e-08
-8.55711e-07
8.58855e-08
-8.82874e-07
8.68022e-08
-9.10337e-07
8.76988e-08
-9.38095e-07
8.8572e-08
-9.66142e-07
8.94185e-08
-9.94472e-07
9.0235e-08
-1.02308e-06
9.10182e-08
-1.05195e-06
9.1765e-08
-1.08109e-06
9.24727e-08
-1.11048e-06
9.31394e-08
-1.14012e-06
9.37637e-08
-1.16999e-06
9.4345e-08
-1.20008e-06
9.48828e-08
-1.23036e-06
9.53781e-08
-1.26081e-06
9.58341e-08
-1.29133e-06
9.62474e-08
-1.32192e-06
9.65877e-08
-1.35259e-06
9.68452e-08
-1.38333e-06
9.70367e-08
-1.41411e-06
9.7164e-08
-1.44489e-06
9.7222e-08
-1.47565e-06
9.72038e-08
-1.50637e-06
9.71033e-08
-1.537e-06
9.6915e-08
-1.56753e-06
9.66344e-08
-1.59792e-06
9.62577e-08
-1.62813e-06
9.57817e-08
-1.65814e-06
9.52037e-08
-1.68791e-06
9.45213e-08
-1.7174e-06
9.37327e-08
-1.74659e-06
9.2836e-08
-1.77543e-06
9.18296e-08
-1.8039e-06
9.0712e-08
-1.83194e-06
8.94816e-08
-1.85954e-06
8.81364e-08
-1.88664e-06
8.66745e-08
-1.91322e-06
8.50933e-08
-1.93922e-06
8.33894e-08
-1.96462e-06
8.1559e-08
-1.98937e-06
7.95969e-08
-2.01342e-06
7.74972e-08
-2.03672e-06
7.5253e-08
-2.05924e-06
7.28562e-08
-2.08091e-06
7.02979e-08
-2.10169e-06
6.75685e-08
-2.12151e-06
6.46579e-08
-2.14031e-06
6.15557e-08
-2.15803e-06
5.82518e-08
-2.1746e-06
5.47374e-08
-2.18995e-06
5.10046e-08
-2.204e-06
4.70481e-08
-2.21669e-06
4.28654e-08
-2.22794e-06
3.84574e-08
-2.23767e-06
3.38291e-08
-2.24582e-06
2.89896e-08
-2.25233e-06
2.39519e-08
-2.25713e-06
1.87324e-08
-2.26016e-06
1.33499e-08
-2.26139e-06
7.82322e-09
-2.26076e-06
2.16872e-09
-2.25826e-06
-3.58499e-09
-2.25388e-06
-9.3824e-09
-2.24762e-06
-1.5177e-08
-2.2395e-06
-2.09524e-08
-2.22952e-06
-2.67028e-08
-2.21768e-06
-3.2427e-08
-2.204e-06
-3.8126e-08
-2.18848e-06
-4.38007e-08
-2.17114e-06
-4.94519e-08
-2.15198e-06
-5.50795e-08
-2.13101e-06
-6.06823e-08
-2.10824e-06
-6.62574e-08
-2.08368e-06
-7.18006e-08
-2.05734e-06
-7.73062e-08
-2.02925e-06
-8.27671e-08
-1.99941e-06
-8.8175e-08
-1.96785e-06
-9.35206e-08
-1.9346e-06
-9.87928e-08
-1.89969e-06
-1.0398e-07
-1.86314e-06
-1.09067e-07
-1.825e-06
-1.14042e-07
-1.78531e-06
-1.18889e-07
-1.74412e-06
-1.2359e-07
-1.70149e-06
-1.28129e-07
-1.65746e-06
-1.32486e-07
-1.61211e-06
-1.36641e-07
-1.56552e-06
-1.40575e-07
-1.51775e-06
-1.44271e-07
-1.4689e-06
-1.4771e-07
-1.41905e-06
-1.50879e-07
-1.36828e-06
-1.53763e-07
-1.31671e-06
-1.56351e-07
-1.26441e-06
-1.58628e-07
-1.21151e-06
-1.60578e-07
-1.1581e-06
-1.62192e-07
-1.10428e-06
-1.63463e-07
-1.05018e-06
-1.64388e-07
-9.95887e-07
-1.64971e-07
-9.4151e-07
-1.65213e-07
-8.87153e-07
-1.65107e-07
-8.32918e-07
-1.64657e-07
-7.78904e-07
-1.63874e-07
-7.25202e-07
-1.62779e-07
-6.71896e-07
-1.61385e-07
-6.19072e-07
-1.59686e-07
-5.6681e-07
-1.57695e-07
-5.1518e-07
-1.55439e-07
-4.64249e-07
-1.52916e-07
-4.14092e-07
-1.50085e-07
-3.64772e-07
-1.46959e-07
-3.16354e-07
-1.43502e-07
-2.68909e-07
-1.39625e-07
-2.22499e-07
-1.35356e-07
-1.77152e-07
-1.30607e-07
-1.32873e-07
-1.25847e-07
-8.93808e-08
-1.20948e-07
-4.67144e-08
-1.19634e-07
-1.16423e-07
-3.52041e-09
2.35725e-09
-7.5971e-09
4.92105e-09
-1.16911e-08
6.88344e-09
-1.2252e-08
8.22593e-09
-1.15203e-08
8.98173e-09
-1.01506e-08
9.1689e-09
-8.40389e-09
8.78968e-09
-6.41562e-09
7.83267e-09
-4.26644e-09
6.27939e-09
-2.01225e-09
4.10566e-09
3.13702e-10
1.30936e-09
2.67029e-09
-2.10328e-09
5.02418e-09
-6.13889e-09
7.35764e-09
-1.0811e-08
9.66652e-09
-1.61368e-08
1.19617e-08
-2.2132e-08
1.42585e-08
-2.88119e-08
1.65747e-08
-3.61964e-08
1.89302e-08
-4.42935e-08
2.13482e-08
-5.31014e-08
2.38483e-08
-6.26102e-08
2.64436e-08
-7.28019e-08
2.91407e-08
-8.3647e-08
3.19389e-08
-9.51085e-08
3.48302e-08
-1.07146e-07
3.7799e-08
-1.19722e-07
4.08241e-08
-1.32801e-07
4.38809e-08
-1.46352e-07
4.69443e-08
-1.60345e-07
4.99897e-08
-1.74757e-07
5.29942e-08
-1.89566e-07
5.59374e-08
-2.04753e-07
5.88019e-08
-2.20306e-07
6.15734e-08
-2.36212e-07
6.42414e-08
-2.52462e-07
6.67988e-08
-2.69049e-07
6.92418e-08
-2.85968e-07
7.15697e-08
-3.03215e-07
7.37843e-08
-3.20787e-07
7.58897e-08
-3.3868e-07
7.78919e-08
-3.56894e-07
7.97978e-08
-3.75427e-07
8.16156e-08
-3.94277e-07
8.33537e-08
-4.13445e-07
8.50207e-08
-4.32929e-07
8.66252e-08
-4.52729e-07
8.81754e-08
-4.72845e-07
8.9679e-08
-4.93276e-07
9.11433e-08
-5.14023e-07
9.25747e-08
-5.35085e-07
9.39789e-08
-5.56462e-07
9.53609e-08
-5.78154e-07
9.67248e-08
-6.00161e-07
9.80741e-08
-6.22484e-07
9.94114e-08
-6.4512e-07
1.00739e-07
-6.68072e-07
1.02057e-07
-6.91337e-07
1.03367e-07
-7.14915e-07
1.04668e-07
-7.38804e-07
1.0596e-07
-7.63004e-07
1.07242e-07
-7.87512e-07
1.08511e-07
-8.12326e-07
1.09765e-07
-8.37443e-07
1.11002e-07
-8.62859e-07
1.12218e-07
-8.88569e-07
1.1341e-07
-9.1457e-07
1.14573e-07
-9.40855e-07
1.15704e-07
-9.67419e-07
1.16799e-07
-9.94254e-07
1.17853e-07
-1.02135e-06
1.18864e-07
-1.04871e-06
1.19825e-07
-1.0763e-06
1.20736e-07
-1.10413e-06
1.21591e-07
-1.13217e-06
1.22388e-07
-1.16041e-06
1.23122e-07
-1.18882e-06
1.23791e-07
-1.21738e-06
1.2439e-07
-1.24604e-06
1.24912e-07
-1.2748e-06
1.25343e-07
-1.30363e-06
1.25681e-07
-1.33253e-06
1.25929e-07
-1.36145e-06
1.26085e-07
-1.39037e-06
1.26144e-07
-1.41926e-06
1.26098e-07
-1.4481e-06
1.25941e-07
-1.47686e-06
1.25667e-07
-1.50549e-06
1.25271e-07
-1.53398e-06
1.24748e-07
-1.56229e-06
1.24094e-07
-1.5904e-06
1.23307e-07
-1.61826e-06
1.22382e-07
-1.64584e-06
1.21318e-07
-1.67312e-06
1.20113e-07
-1.70005e-06
1.18764e-07
-1.72661e-06
1.1727e-07
-1.75276e-06
1.15628e-07
-1.77846e-06
1.13837e-07
-1.80367e-06
1.11893e-07
-1.82837e-06
1.09793e-07
-1.85252e-06
1.07534e-07
-1.87607e-06
1.0511e-07
-1.89899e-06
1.02515e-07
-1.92123e-06
9.97407e-08
-1.94276e-06
9.67781e-08
-1.96352e-06
9.36167e-08
-1.98347e-06
9.02448e-08
-2.00255e-06
8.66495e-08
-2.02071e-06
8.28173e-08
-2.03789e-06
7.87344e-08
-2.05402e-06
7.43873e-08
-2.06905e-06
6.97636e-08