/*--------------------------------*- C++ -*----------------------------------*\
| =========                 |                                                 |
| \\      /  F ield         | OpenFOAM: The Open Source CFD Toolbox           |
|  \\    /   O peration     | Version:  1.4.2                                 |
|   \\  /    A nd           | Web:      http://www.openfoam.org               |
|    \\/     M anipulation  |                                                 |
\*---------------------------------------------------------------------------*/
FoamFile
{
    version     2.0;
    format      ascii;
    class       volVectorField;
    object      U;
    location    "950";
}
// * * * * * * * * * * * * * * * * * * * * * * * * * * * * * * * * * * * * * //

dimensions      [0 1 -1 0 0 0 0];

internalField   nonuniform List<vector> 
12225
(
(9.77631 0.0380804 0)
(9.58165 0.0388037 0)
(9.36739 0.0370214 0)
(9.16175 0.036156 0)
(8.97093 0.0352099 0)
(8.79279 0.0340374 0)
(8.62613 0.0327669 0)
(8.47066 0.0314617 0)
(8.32604 0.0301359 0)
(8.19182 0.0287944 0)
(8.06752 0.0274411 0)
(7.95272 0.0260757 0)
(7.84705 0.0246913 0)
(7.75023 0.0232681 0)
(7.66213 0.0217597 0)
(7.58295 0.0200462 0)
(7.51441 0.0178677 0)
(7.44983 0.00472261 0)
(10.004 0.0585744 0)
(10.0077 0.0555245 0)
(9.98308 0.0518566 0)
(9.95111 0.0514229 0)
(9.91832 0.0511406 0)
(9.88422 0.0504772 0)
(9.84881 0.049637 0)
(9.81267 0.0487104 0)
(9.77628 0.0476969 0)
(9.73998 0.0465874 0)
(9.70408 0.0453755 0)
(9.66887 0.0440467 0)
(9.63468 0.0425684 0)
(9.60189 0.0408738 0)
(9.57099 0.0388195 0)
(9.54277 0.0360678 0)
(9.51876 0.0317828 0)
(9.49699 0.0221309 0)
(10.0174 0.0524277 0)
(10.037 0.0526684 0)
(10.0383 0.0512376 0)
(10.0338 0.0521789 0)
(10.0285 0.0527977 0)
(10.0223 0.0527771 0)
(10.015 0.0524487 0)
(10.007 0.0519559 0)
(9.99853 0.0513164 0)
(9.98983 0.0505277 0)
(9.98099 0.0495819 0)
(9.97217 0.0484537 0)
(9.96352 0.0470876 0)
(9.95525 0.0453741 0)
(9.94762 0.043096 0)
(9.94093 0.0397996 0)
(9.93547 0.0344627 0)
(9.92792 0.0245535 0)
(10.0158 0.0449534 0)
(10.0376 0.0501265 0)
(10.046 0.050654 0)
(10.0489 0.0521586 0)
(10.051 0.0531259 0)
(10.0522 0.053411 0)
(10.0526 0.0533299 0)
(10.0524 0.0530293 0)
(10.0519 0.0525385 0)
(10.0513 0.0518606 0)
(10.0506 0.0509864 0)
(10.0499 0.0498834 0)
(10.0494 0.0484835 0)
(10.0491 0.0466603 0)
(10.0491 0.0441859 0)
(10.0496 0.0406537 0)
(10.0502 0.0354012 0)
(10.0488 0.0275249 0)
(10.0125 0.037082 0)
(10.0331 0.0461477 0)
(10.0446 0.0485733 0)
(10.0509 0.050682 0)
(10.0561 0.051979 0)
(10.0603 0.0525023 0)
(10.0638 0.0525798 0)
(10.0668 0.0523757 0)
(10.0694 0.051936 0)
(10.0718 0.0512711 0)
(10.0742 0.0503721 0)
(10.0766 0.0492045 0)
(10.079 0.0476978 0)
(10.0815 0.0457288 0)
(10.0842 0.0430965 0)
(10.0869 0.0394958 0)
(10.0893 0.0345603 0)
(10.0901 0.0280705 0)
(10.0094 0.0302341 0)
(10.0273 0.0413819 0)
(10.0399 0.0454292 0)
(10.0483 0.0482108 0)
(10.0552 0.0498995 0)
(10.0612 0.0506976 0)
(10.0664 0.0509511 0)
(10.071 0.0508448 0)
(10.0752 0.0504489 0)
(10.0792 0.0497876 0)
(10.0831 0.0488582 0)
(10.0869 0.0476295 0)
(10.0907 0.0460365 0)
(10.0944 0.043972 0)
(10.0982 0.041279 0)
(10.1017 0.0377565 0)
(10.1047 0.0332405 0)
(10.1065 0.027812 0)
(10.0067 0.0244777 0)
(10.0216 0.036382 0)
(10.0341 0.0415818 0)
(10.0434 0.0449298 0)
(10.0514 0.0470083 0)
(10.0585 0.0481033 0)
(10.0648 0.0485575 0)
(10.0705 0.0485715 0)
(10.0757 0.0482364 0)
(10.0807 0.0475914 0)
(10.0855 0.0466432 0)
(10.0901 0.0453693 0)
(10.0946 0.0437181 0)
(10.099 0.0416074 0)
(10.1032 0.0389293 0)
(10.107 0.0355704 0)
(10.1103 0.0314899 0)
(10.1126 0.0268724 0)
(10.005 0.0203579 0)
(10.0173 0.0322052 0)
(10.0291 0.0380055 0)
(10.0386 0.041707 0)
(10.047 0.0440462 0)
(10.0545 0.0453539 0)
(10.0614 0.045966 0)
(10.0677 0.0460861 0)
(10.0735 0.0458144 0)
(10.0791 0.0451986 0)
(10.0843 0.0442536 0)
(10.0894 0.0429667 0)
(10.0943 0.0413006 0)
(10.099 0.0391977 0)
(10.1034 0.0365891 0)
(10.1074 0.0334194 0)
(10.1108 0.0297069 0)
(10.1134 0.0256522 0)
(10.0039 0.0172039 0)
(10.0141 0.0286205 0)
(10.0249 0.034714 0)
(10.0342 0.0386415 0)
(10.0426 0.0411603 0)
(10.0504 0.0426245 0)
(10.0576 0.0433585 0)
(10.0642 0.0435635 0)
(10.0704 0.0433455 0)
(10.0763 0.0427595 0)
(10.0819 0.0418273 0)
(10.0872 0.0405451 0)
(10.0924 0.0388888 0)
(10.0972 0.0368213 0)
(10.1017 0.0343045 0)
(10.1058 0.0313212 0)
(10.1094 0.0279217 0)
(10.1122 0.0242995 0)
(10.0029 0.0143489 0)
(10.0112 0.0249765 0)
(10.0209 0.0311278 0)
(10.0297 0.0351602 0)
(10.0379 0.0377942 0)
(10.0457 0.0393783 0)
(10.0529 0.0402138 0)
(10.0597 0.0404946 0)
(10.0662 0.0403291 0)
(10.0723 0.0397774 0)
(10.0781 0.0388682 0)
(10.0836 0.0376071 0)
(10.0888 0.0359845 0)
(10.0938 0.0339835 0)
(10.0984 0.0315924 0)
(10.1025 0.0288231 0)
(10.1061 0.0257412 0)
(10.1091 0.0225244 0)
(10.0021 0.0117913 0)
(10.0088 0.0213578 0)
(10.0171 0.0273307 0)
(10.0253 0.0313222 0)
(10.0331 0.0339795 0)
(10.0406 0.0356242 0)
(10.0478 0.0365231 0)
(10.0545 0.0368569 0)
(10.061 0.0367331 0)
(10.0672 0.0362147 0)
(10.073 0.0353363 0)
(10.0786 0.0341133 0)
(10.0839 0.0325497 0)
(10.0888 0.0306466 0)
(10.0934 0.0284133 0)
(10.0976 0.0258803 0)
(10.1012 0.0231177 0)
(10.1044 0.0202801 0)
(10.0015 0.00952708 0)
(10.0068 0.0178409 0)
(10.0139 0.0234037 0)
(10.0212 0.0272021 0)
(10.0284 0.0297742 0)
(10.0355 0.0314018 0)
(10.0424 0.0323108 0)
(10.049 0.0326628 0)
(10.0553 0.0325604 0)
(10.0614 0.0320674 0)
(10.0672 0.0312233 0)
(10.0727 0.0300518 0)
(10.0779 0.028569 0)
(10.0828 0.0267903 0)
(10.0872 0.0247393 0)
(10.0913 0.0224562 0)
(10.0949 0.0200076 0)
(10.0982 0.0175227 0)
(10.0011 0.00753329 0)
(10.0052 0.014481 0)
(10.0111 0.0194205 0)
(10.0176 0.0228734 0)
(10.0242 0.0252439 0)
(10.0308 0.0267657 0)
(10.0372 0.027621 0)
(10.0435 0.0279479 0)
(10.0496 0.0278398 0)
(10.0554 0.0273592 0)
(10.061 0.0265483 0)
(10.0663 0.0254374 0)
(10.0713 0.0240513 0)
(10.076 0.0224153 0)
(10.0803 0.0205608 0)
(10.0843 0.0185305 0)
(10.0878 0.0163831 0)
(10.091 0.014223 0)
(10.0009 0.00576666 0)
(10.0041 0.0113008 0)
(10.009 0.0154371 0)
(10.0146 0.0183964 0)
(10.0205 0.0204478 0)
(10.0265 0.0217701 0)
(10.0324 0.0225029 0)
(10.0383 0.022757 0)
(10.044 0.0226132 0)
(10.0495 0.0221292 0)
(10.0548 0.0213475 0)
(10.0598 0.0203019 0)
(10.0645 0.0190221 0)
(10.069 0.0175382 0)
(10.0731 0.0158841 0)
(10.0769 0.0140998 0)
(10.0803 0.0122344 0)
(10.0835 0.0103705 0)
(10.0007 0.00417305 0)
(10.0032 0.00828783 0)
(10.0073 0.0114807 0)
(10.0121 0.0138089 0)
(10.0174 0.0154264 0)
(10.0228 0.0164557 0)
(10.0283 0.0169955 0)
(10.0337 0.0171278 0)
(10.039 0.0169173 0)
(10.0441 0.0164132 0)
(10.049 0.0156549 0)
(10.0537 0.0146757 0)
(10.0582 0.0135059 0)
(10.0623 0.0121761 0)
(10.0662 0.0107179 0)
(10.0698 0.00916612 0)
(10.0731 0.00755998 0)
(10.0761 0.00596385 0)
(10.0005 0.00269309 0)
(10.0026 0.00539347 0)
(10.0061 0.00753699 0)
(10.0103 0.00911111 0)
(10.0149 0.0101863 0)
(10.0198 0.0108323 0)
(10.0248 0.0111095 0)
(10.0298 0.0110712 0)
(10.0347 0.0107625 0)
(10.0395 0.0102208 0)
(10.044 0.00947812 0)
(10.0484 0.00856302 0)
(10.0525 0.00750252 0)
(10.0564 0.00632322 0)
(10.0601 0.00505195 0)
(10.0635 0.00371645 0)
(10.0666 0.00234686 0)
(10.0695 0.000992539 0)
(10.0005 0.00126141 0)
(10.0023 0.0025329 0)
(10.0053 0.00353986 0)
(10.009 0.00425312 0)
(10.0133 0.00468789 0)
(10.0177 0.004868 0)
(10.0223 0.00481799 0)
(10.0269 0.00456242 0)
(10.0315 0.00412472 0)
(10.0359 0.00352677 0)
(10.0402 0.0027891 0)
(10.0443 0.00193171 0)
(10.0481 0.000974452 0)
(10.0518 -6.2872e-05 0)
(10.0552 -0.00116044 0)
(10.0584 -0.00229813 0)
(10.0613 -0.00345396 0)
(10.0642 -0.00459022 0)
(10.0004 -0.0001223 0)
(10.0021 -0.00025701 0)
(10.005 -0.000398806 0)
(10.0085 -0.000574488 0)
(10.0125 -0.000810259 0)
(10.0168 -0.00112337 0)
(10.0211 -0.00152297 0)
(10.0255 -0.0020125 0)
(10.0298 -0.00259105 0)
(10.034 -0.00325418 0)
(10.0381 -0.00399459 0)
(10.0419 -0.00480307 0)
(10.0456 -0.00566898 0)
(10.0491 -0.00658067 0)
(10.0523 -0.00752594 0)
(10.0554 -0.00849198 0)
(10.0582 -0.009464 0)
(10.0609 -0.0104142 0)
(10.0004 -0.00143631 0)
(10.0022 -0.00289102 0)
(10.0052 -0.00409194 0)
(10.0088 -0.00507322 0)
(10.0128 -0.00590806 0)
(10.0171 -0.00665557 0)
(10.0214 -0.00735779 0)
(10.0257 -0.00804529 0)
(10.0299 -0.00873894 0)
(10.034 -0.00945122 0)
(10.0379 -0.0101881 0)
(10.0416 -0.0109508 0)
(10.0452 -0.0117372 0)
(10.0486 -0.0125431 0)
(10.0517 -0.0133627 0)
(10.0547 -0.0141889 0)
(10.0575 -0.0150123 0)
(10.0602 -0.0158126 0)
(10.0005 -0.00274062 0)
(10.0026 -0.00544766 0)
(10.0059 -0.00758806 0)
(10.0098 -0.0092452 0)
(10.014 -0.0105634 0)
(10.0184 -0.0116484 0)
(10.0228 -0.0125752 0)
(10.0271 -0.0134009 0)
(10.0314 -0.0141666 0)
(10.0354 -0.0148994 0)
(10.0393 -0.0156164 0)
(10.043 -0.0163275 0)
(10.0465 -0.0170376 0)
(10.0498 -0.0177483 0)
(10.053 -0.018459 0)
(10.0559 -0.019167 0)
(10.0586 -0.0198672 0)
(10.0612 -0.020545 0)
(10.0007 -0.00415233 0)
(10.0032 -0.00810744 0)
(10.0071 -0.011075 0)
(10.0115 -0.0132747 0)
(10.0161 -0.0149579 0)
(10.0207 -0.0162802 0)
(10.0253 -0.0173498 0)
(10.0297 -0.0182499 0)
(10.034 -0.0190398 0)
(10.0381 -0.019759 0)
(10.042 -0.0204333 0)
(10.0457 -0.0210791 0)
(10.0491 -0.0217066 0)
(10.0524 -0.0223218 0)
(10.0554 -0.022928 0)
(10.0583 -0.0235263 0)
(10.061 -0.0241148 0)
(10.0635 -0.0246842 0)
(10.0009 -0.00579768 0)
(10.0043 -0.0110193 0)
(10.009 -0.0146715 0)
(10.014 -0.0172626 0)
(10.019 -0.0191844 0)
(10.0239 -0.0206378 0)
(10.0287 -0.0217637 0)
(10.0332 -0.0226709 0)
(10.0376 -0.023434 0)
(10.0417 -0.0241018 0)
(10.0455 -0.0247059 0)
(10.0491 -0.0252673 0)
(10.0525 -0.0257997 0)
(10.0557 -0.0263119 0)
(10.0586 -0.0268099 0)
(10.0614 -0.0272978 0)
(10.0639 -0.0277771 0)
(10.0663 -0.0282431 0)
(10.0014 -0.00782966 0)
(10.0059 -0.014304 0)
(10.0117 -0.0184299 0)
(10.0174 -0.0212319 0)
(10.0228 -0.0232531 0)
(10.028 -0.0247229 0)
(10.0328 -0.0258139 0)
(10.0374 -0.0266587 0)
(10.0417 -0.027343 0)
(10.0457 -0.0279207 0)
(10.0494 -0.0284269 0)
(10.0529 -0.0288845 0)
(10.0561 -0.0293086 0)
(10.059 -0.0297093 0)
(10.0618 -0.0300938 0)
(10.0643 -0.0304681 0)
(10.0666 -0.0308369 0)
(10.0688 -0.0312011 0)
(10.0021 -0.0104364 0)
(10.0083 -0.0180384 0)
(10.0153 -0.0223241 0)
(10.0216 -0.0251225 0)
(10.0272 -0.0270894 0)
(10.0325 -0.0284551 0)
(10.0373 -0.0294218 0)
(10.0417 -0.0301405 0)
(10.0457 -0.0307015 0)
(10.0494 -0.0311585 0)
(10.0528 -0.031546 0)
(10.056 -0.0318863 0)
(10.0588 -0.0321937 0)
(10.0615 -0.0324776 0)
(10.0639 -0.0327451 0)
(10.0661 -0.0330029 0)
(10.0681 -0.0332585 0)
(10.07 -0.0335201 0)
(10.0033 -0.0138398 0)
(10.0116 -0.0222141 0)
(10.0198 -0.0262275 0)
(10.0263 -0.0287859 0)
(10.0318 -0.0305457 0)
(10.0368 -0.0316983 0)
(10.0412 -0.0324664 0)
(10.0451 -0.0330098 0)
(10.0486 -0.0334156 0)
(10.0518 -0.0337329 0)
(10.0546 -0.0339924 0)
(10.0572 -0.0342134 0)
(10.0596 -0.0344072 0)
(10.0618 -0.0345803 0)
(10.0637 -0.0347373 0)
(10.0654 -0.034883 0)
(10.067 -0.0350266 0)
(10.0684 -0.0351844 0)
(10.005 -0.0182964 0)
(10.0159 -0.0266613 0)
(10.0247 -0.0298704 0)
(10.0307 -0.0319685 0)
(10.0355 -0.0333891 0)
(10.0397 -0.0342455 0)
(10.0432 -0.0347715 0)
(10.0462 -0.0351226 0)
(10.0488 -0.035371 0)
(10.0512 -0.0355539 0)
(10.0532 -0.0356946 0)
(10.055 -0.035807 0)
(10.0566 -0.0358985 0)
(10.058 -0.0359718 0)
(10.0592 -0.0360267 0)
(10.0602 -0.0360629 0)
(10.0611 -0.0360871 0)
(10.0618 -0.0361203 0)
(10.0075 -0.0241256 0)
(10.0207 -0.0310249 0)
(10.0287 -0.0328172 0)
(10.0331 -0.0343194 0)
(10.0363 -0.0353662 0)
(10.0389 -0.035921 0)
(10.0409 -0.0362143 0)
(10.0424 -0.0363893 0)
(10.0435 -0.0364983 0)
(10.0443 -0.036564 0)
(10.0449 -0.0366011 0)
(10.0453 -0.0366187 0)
(10.0455 -0.0366203 0)
(10.0455 -0.0366047 0)
(10.0454 -0.0365667 0)
(10.0452 -0.0364972 0)
(10.0448 -0.0363911 0)
(10.0442 -0.0362571 0)
(10.0101 -0.030746 0)
(10.0238 -0.0344084 0)
(10.0287 -0.0343634 0)
(10.0292 -0.0352377 0)
(10.0289 -0.0359391 0)
(10.0281 -0.036226 0)
(10.0266 -0.0363096 0)
(10.0246 -0.0363166 0)
(10.0223 -0.036283 0)
(10.0199 -0.0362221 0)
(10.0172 -0.0361439 0)
(10.0145 -0.0360548 0)
(10.0116 -0.0359563 0)
(10.0086 -0.0358447 0)
(10.0056 -0.0357095 0)
(10.0026 -0.0355285 0)
(9.99943 -0.0352674 0)
(9.99599 -0.0348623 0)
(10.0062 -0.0364083 0)
(10.0142 -0.0379476 0)
(10.0067 -0.0361131 0)
(9.99423 -0.0359764 0)
(9.9816 -0.0359996 0)
(9.96877 -0.0357931 0)
(9.95554 -0.0354973 0)
(9.9421 -0.0351986 0)
(9.92864 -0.0349095 0)
(9.91525 -0.0346274 0)
(9.90197 -0.0343517 0)
(9.88884 -0.0340818 0)
(9.87588 -0.0338154 0)
(9.86314 -0.0335469 0)
(9.85062 -0.0332643 0)
(9.83837 -0.0329376 0)
(9.82642 -0.0324983 0)
(9.81421 -0.0315604 0)
(9.89292 -0.024831 0)
(9.80337 -0.0270761 0)
(9.69906 -0.0264883 0)
(9.59607 -0.0263391 0)
(9.49955 -0.0261466 0)
(9.40856 -0.0258007 0)
(9.32224 -0.0253939 0)
(9.24035 -0.0249801 0)
(9.16272 -0.0245718 0)
(9.08913 -0.0241705 0)
(9.01937 -0.0237769 0)
(8.9532 -0.0233909 0)
(8.89045 -0.0230117 0)
(8.83092 -0.022637 0)
(8.77448 -0.0222617 0)
(8.72098 -0.0218698 0)
(8.67052 -0.0214143 0)
(8.62157 -0.0205375 0)
(0.000221358 -0.000331835 0)
(0.00133924 -0.00135113 0)
(0.00366071 -0.00243985 0)
(0.00670364 -0.00325557 0)
(0.0100519 -0.00368923 0)
(0.0134081 -0.00377509 0)
(0.0165623 -0.00359177 -6.29087e-19)
(0.0193716 -0.0032183 6.05852e-19)
(0.0217468 -0.00272369 0)
(0.0236422 -0.00216871 5.73958e-19)
(0.0250457 -0.00160607 0)
(0.0259701 -0.00107461 0)
(0.0264418 -0.000595557 0)
(0.0264922 -0.000176383 -5.4397e-19)
(0.0261555 0.000180506 0)
(0.025474 0.000475764 0)
(0.0244789 0.000718485 5.25627e-19)
(0.0231918 0.000916659 0)
(0.0216255 0.00107607 0)
(0.0197843 0.00120596 0)
(0.0176418 0.00134206 -5.00402e-19)
(0.015162 0.0015285 0)
(0.0122841 0.00181554 -5.0018e-19)
(0.00892001 0.00225555 0)
(0.00496919 0.0028707 0)
(0.000277244 0.00364872 -5.40143e-19)
(-0.00525942 0.00453899 0)
(-0.0116385 0.00549108 5.0417e-19)
(-0.018988 0.00650787 0)
(-0.0273435 0.00757534 -4.49742e-19)
(-0.0367331 0.00866759 0)
(-0.0471683 0.00975812 0)
(-0.0586431 0.0108241 0)
(-0.071137 0.0118476 0)
(-0.084618 0.0128161 0)
(-0.0990464 0.0137217 2.95912e-19)
(-0.114377 0.0145602 0)
(-0.130563 0.0153307 -5.13381e-19)
(-0.147554 0.0160344 0)
(-0.165303 0.0166741 4.47786e-19)
(-0.183763 0.0172538 0)
(-0.202891 0.0177781 0)
(-0.222645 0.0182518 -3.69697e-19)
(-0.242988 0.0186802 0)
(-0.263886 0.019068 -3.28479e-19)
(-0.285309 0.0194201 3.10499e-19)
(-0.30723 0.0197409 0)
(-0.329626 0.0200344 2.78931e-19)
(-0.352477 0.0203043 2.65049e-19)
(-0.375766 0.0205538 0)
(-0.399478 0.0207857 0)
(-0.423601 0.0210023 0)
(-0.448125 0.0212056 0)
(-0.473041 0.0213971 0)
(-0.498343 0.0215779 -2.01335e-19)
(-0.524023 0.0217489 0)
(-0.550077 0.0219103 1.85616e-19)
(-0.5765 0.0220622 0)
(-0.603288 0.0222043 0)
(-0.630436 0.0223357 -1.65648e-19)
(-0.65794 0.0224554 0)
(-0.685795 0.0225617 1.54293e-19)
(-0.713995 0.0226526 0)
(-0.742532 0.0227255 0)
(-0.771399 0.022777 0)
(-0.800587 0.0228031 -1.35243e-19)
(-0.830084 0.0227992 0)
(-0.859875 0.0227595 0)
(-0.889946 0.0226776 -1.23492e-19)
(-0.920276 0.0225467 0)
(-0.950843 0.0223603 -1.16622e-19)
(-0.981622 0.022115 0)
(-1.01259 0.0218146 0)
(-1.0437 0.0214789 0)
(-1.07494 0.0211582 1.04708e-19)
(-1.10632 0.0209599 0)
(-1.13791 0.0211016 0)
(-1.16976 0.022002 9.66922e-20)
(-1.20197 0.0226461 9.4363e-20)
(-1.23438 0.0225527 0)
(-1.26686 0.0224633 9.02e-20)
(-1.29945 0.0223844 0)
(-1.33213 0.0223017 1.72753e-19)
(-1.36491 0.0222077 0)
(-1.39775 0.0220985 1.657e-19)
(-1.43064 0.0219721 0)
(-1.46355 0.0218273 -1.59177e-19)
(-1.49644 0.0216633 0)
(-1.52929 0.0214796 0)
(-1.56207 0.0212758 0)
(-1.59474 0.0210518 1.47498e-19)
(-1.62727 0.0208073 0)
(-1.65962 0.0205424 -1.42245e-19)
(-1.69177 0.0202567 0)
(-1.72367 0.0199504 1.37325e-19)
(-1.75529 0.0196234 1.34977e-19)
(-1.78659 0.0192754 1.32698e-19)
(-1.81754 0.0189064 0)
(-1.8481 0.0185159 0)
(-1.87822 0.0181037 0)
(-1.90786 0.017669 0)
(-1.93699 0.0172111 0)
(-1.96556 0.0167291 0)
(-1.99352 0.0162217 0)
(-2.02082 0.0156877 0)
(-2.0474 0.0151256 -1.14543e-19)
(-2.07323 0.0145341 -1.12716e-19)
(-2.09822 0.0139115 0)
(-2.12233 0.0132563 0)
(-2.14547 0.0125673 0)
(-2.16759 0.0118434 -1.05619e-19)
(-2.18861 0.0110838 0)
(-2.20846 0.0102886 0)
(-2.22705 0.00945818 0)
(-2.24431 0.0085937 0)
(-2.26015 0.00769702 9.70039e-20)
(-2.27452 0.00677069 0)
(-2.28733 0.00581789 0)
(-2.29851 0.00484218 -9.18392e-20)
(-2.30802 0.00384723 9.01034e-20)
(-2.31578 0.00283643 0)
(-2.32176 0.00181206 8.65961e-20)
(-2.32591 0.000774673 0)
(-2.32818 -0.000268151 -8.29846e-20)
(-2.32855 -0.00130085 0)
(-2.32702 -0.00231719 0)
(-2.32359 -0.00332069 0)
(-2.31827 -0.00431286 0)
(-2.31106 -0.00529461 0)
(-2.30194 -0.00626666 1.42793e-19)
(-2.29093 -0.00722966 1.38711e-19)
(-2.27803 -0.00818403 0)
(-2.26322 -0.00912992 0)
(-2.24652 -0.0100672 0)
(-2.22793 -0.0109957 -1.21585e-19)
(-2.20744 -0.0119148 0)
(-2.18505 -0.0128239 0)
(-2.16079 -0.013722 0)
(-2.13464 -0.014608 -1.02987e-19)
(-2.10664 -0.0154805 9.80801e-20)
(-2.07678 -0.0163378 0)
(-2.0451 -0.0171781 0)
(-2.01162 -0.0179994 8.26927e-20)
(-1.97637 -0.0187994 7.73342e-20)
(-1.93938 -0.0195756 0)
(-1.9007 -0.0203252 0)
(-1.86037 -0.0210449 -6.0551e-20)
(-1.81845 -0.0217316 5.47199e-20)
(-1.77501 -0.0223824 0)
(-1.73011 -0.0229945 0)
(-1.68382 -0.023565 3.65291e-20)
(-1.63624 -0.0240912 0)
(-1.58745 -0.0245707 0)
(-1.53755 -0.0250007 1.73476e-20)
(-1.48663 -0.0253783 0)
(-1.4348 -0.0257002 4.06673e-21)
(-1.38217 -0.0259643 0)
(-1.32887 -0.026169 0)
(-1.275 -0.0263136 0)
(-1.2207 -0.0263974 2.34531e-20)
(-1.16607 -0.026419 0)
(-1.11126 -0.0263764 0)
(-1.05638 -0.0262698 0)
(-1.00156 -0.0261004 0)
(-0.946935 -0.0258708 0)
(-0.89261 -0.0255812 0)
(-0.838709 -0.0252292 7.35063e-20)
(-0.785356 -0.0248168 8.07737e-20)
(-0.732666 -0.0243481 0)
(-0.680747 -0.0238186 0)
(-0.629731 -0.0232173 0)
(-0.579761 -0.0225463 -1.10264e-19)
(-0.53098 -0.0217937 0)
(-0.483598 -0.0209291 2.51057e-19)
(-0.437827 -0.0199617 -2.66828e-19)
(-0.394021 -0.0188439 -2.83036e-19)
(-0.352089 -0.0177411 2.99712e-19)
(-0.313453 -0.0163678 -3.1724e-19)
(-0.272934 -0.0165275 3.35681e-19)
(-0.239338 -0.0157623 0)
(0.000659515 -0.00287595 0)
(0.00323384 -0.00689845 0)
(0.00663452 -0.00941487 1.18356e-18)
(0.0101208 -0.0105392 0)
(0.0133587 -0.0106233 -8.14753e-19)
(0.0161995 -0.00999371 -7.15066e-19)
(0.0185753 -0.00890767 -3.22315e-19)
(0.020456 -0.00755621 -2.97318e-19)
(0.0218333 -0.00607616 0)
(0.0227093 -0.00456216 -2.69745e-19)
(0.0230866 -0.00307725 0)
(0.0229605 -0.00165659 0)
(0.0223111 -0.000317735 5.24156e-19)
(0.0211451 0.000920945 2.62903e-19)
(0.0194745 0.00204794 -5.2926e-19)
(0.0172985 0.00307417 -5.34402e-19)
(0.0146065 0.00403201 -2.70372e-19)
(0.011384 0.00495569 0)
(0.00760778 0.00588113 0)
(0.0032473 0.00685299 0)
(-0.00180607 0.00793081 -2.81224e-19)
(-0.00751928 0.00913757 0)
(-0.0139716 0.0105256 7.91493e-19)
(-0.0212107 0.0121358 0)
(-0.0292604 0.0139695 0)
(-0.0381361 0.0159876 2.31257e-19)
(-0.0478398 0.0181317 0)
(-0.0583665 0.0203606 -2.08162e-19)
(-0.0697109 0.0226428 -3.93565e-19)
(-0.0818527 0.024938 1.85789e-19)
(-0.0947673 0.0272072 0)
(-0.108427 0.0294156 0)
(-0.122801 0.031535 0)
(-0.137859 0.0335444 -2.93172e-19)
(-0.153567 0.0354294 -2.76422e-19)
(-0.169894 0.0371816 -1.30437e-19)
(-0.186807 0.0387979 0)
(-0.204272 0.0402789 2.32856e-19)
(-0.222261 0.0416286 0)
(-0.240744 0.0428533 -2.08725e-19)
(-0.259692 0.0439611 0)
(-0.279083 0.0449609 0)
(-0.298893 0.0458622 1.7869e-19)
(-0.319103 0.0466749 0)
(-0.339697 0.0474085 4.86053e-19)
(-0.360659 0.0480722 -1.54616e-19)
(-0.381978 0.0486747 0)
(-0.403644 0.0492237 -1.41203e-19)
(-0.425649 0.0497266 -1.35162e-19)
(-0.447989 0.0501896 0)
(-0.470657 0.0506184 0)
(-0.493652 0.0510178 0)
(-0.516971 0.0513917 0)
(-0.540613 0.0517435 0)
(-0.564578 0.0520758 1.06206e-19)
(-0.588867 0.0523909 2.04544e-19)
(-0.613479 0.0526901 -9.87386e-20)
(-0.638414 0.0529745 0)
(-0.663673 0.0532448 1.84037e-19)
(-0.689256 0.053501 -8.88892e-20)
(-0.715162 0.053743 0)
(-0.741391 0.0539703 -8.34942e-20)
(-0.76794 0.0541822 0)
(-0.794808 0.0543776 0)
(-0.821992 0.0545554 -1.52218e-19)
(-0.849488 0.0547144 7.4028e-20)
(-0.877293 0.0548529 -1.43736e-19)
(-0.905401 0.0549696 1.39825e-19)
(-0.933809 0.0550629 6.81579e-20)
(-0.962513 0.055131 0)
(-0.991509 0.0551721 6.47489e-20)
(-1.02079 0.0551837 0)
(-1.05037 0.0551631 0)
(-1.08023 0.0551062 0)
(-1.11038 0.0550061 5.8835e-20)
(-1.1408 0.0548519 0)
(-1.17145 0.0546373 1.12827e-19)
(-1.20219 0.054391 -1.65422e-19)
(-1.23298 0.0541451 -5.38943e-20)
(-1.26391 0.0538863 0)
(-1.29503 0.0536293 -5.13986e-20)
(-1.32628 0.0533641 0)
(-1.35762 0.0530769 -9.81679e-20)
(-1.38902 0.0527587 0)
(-1.42047 0.0524041 -9.38752e-20)
(-1.45193 0.0520097 1.83283e-19)
(-1.48338 0.0515736 8.98878e-20)
(-1.51479 0.0510945 0)
(-1.54613 0.0505716 0)
(-1.57736 0.0500045 0)
(-1.60846 0.049393 -8.27113e-20)
(-1.6394 0.0487372 0)
(-1.67014 0.0480373 7.947e-20)
(-1.70065 0.0472935 0)
(-1.73089 0.046506 -2.2891e-19)
(-1.76083 0.0456752 -7.49754e-20)
(-1.79043 0.0448011 -7.3564e-20)
(-1.81966 0.0438839 0)
(-1.84847 0.0429233 0)
(-1.87684 0.0419189 0)
(-1.90471 0.0408698 0)
(-1.93205 0.0397748 0)
(-1.95881 0.0386323 -1.31332e-19)
(-1.98495 0.0374402 -1.28956e-19)
(-2.01043 0.0361962 0)
(-2.03517 0.0348975 6.23046e-20)
(-2.05915 0.0335414 6.11681e-20)
(-2.08229 0.0321247 0)
(-2.10453 0.0306444 1.17632e-19)
(-2.12581 0.0290979 0)
(-2.14607 0.0274827 -5.65363e-20)
(-2.16523 0.0257976 0)
(-2.18321 0.0240419 0)
(-2.19994 0.0222167 1.06857e-19)
(-2.21535 0.020324 0)
(-2.22936 0.0183677 -5.13628e-20)
(-2.24189 0.0163534 0)
(-2.25289 0.0142878 0)
(-2.26227 0.0121789 -4.80928e-20)
(-2.26998 0.0100355 -4.70728e-20)
(-2.27596 0.00786594 0)
(-2.28017 0.00567678 4.49278e-20)
(-2.28255 0.00347091 0)
(-2.28307 0.0012661 -4.27541e-20)
(-2.28174 -0.000911749 -8.31998e-20)
(-2.27854 -0.00305343 0)
(-2.27348 -0.00515711 0)
(-2.26656 -0.00722304 0)
(-2.25777 -0.00925239 0)
(-2.24712 -0.0112464 -7.14975e-20)
(-2.23462 -0.0132062 -2.0775e-19)
(-2.22025 -0.0151325 0)
(-2.20402 -0.0170255 0)
(-2.18593 -0.0188848 0)
(-2.16598 -0.0207097 5.92568e-20)
(-2.14417 -0.0224991 0)
(-2.12051 -0.0242512 0)
(-2.09501 -0.0259641 -1.03846e-19)
(-2.06768 -0.0276355 -4.97049e-20)
(-2.03853 -0.0292626 -4.62661e-20)
(-2.00757 -0.0308422 0)
(-1.97484 -0.0323711 0)
(-1.94035 -0.0338456 -3.81224e-20)
(-1.90415 -0.0352617 3.6334e-20)
(-1.86626 -0.0366152 0)
(-1.82673 -0.0379014 0)
(-1.78561 -0.0391152 2.69508e-20)
(-1.74295 -0.0402513 -7.34762e-20)
(-1.69882 -0.0413054 0)
(-1.65329 -0.042273 0)
(-1.60644 -0.0431505 -1.56118e-20)
(-1.55834 -0.0439344 0)
(-1.50908 -0.044622 -2.11695e-20)
(-1.45876 -0.0452108 8.42215e-21)
(-1.40747 -0.0456972 0)
(-1.35531 -0.0460779 -1.64018e-21)
(-1.3024 -0.0463509 8.5975e-22)
(-1.24883 -0.0465157 0)
(-1.19473 -0.0465732 0)
(-1.14021 -0.0465254 -8.99233e-21)
(-1.08538 -0.0463726 0)
(-1.03036 -0.0461142 2.67703e-20)
(-0.975258 -0.0457523 0)
(-0.920195 -0.0452914 0)
(-0.865279 -0.0447384 0)
(-0.810613 -0.0440966 0)
(-0.7563 -0.043365 -2.57625e-20)
(-0.702445 -0.0425477 -2.79679e-20)
(-0.649145 -0.0416534 0)
(-0.596487 -0.0406792 0)
(-0.544576 -0.0396103 0)
(-0.493521 -0.0384496 3.6523e-20)
(-0.443421 -0.0371824 0)
(-0.394422 -0.0357693 -8.16422e-20)
(-0.346643 -0.0342187 8.60915e-20)
(-0.300329 -0.0324751 9.07027e-20)
(-0.255276 -0.030736 9.35658e-20)
(-0.212639 -0.028818 1.00677e-19)
(-0.168383 -0.0285566 1.04372e-19)
(-0.1319 -0.0267979 0)
(0.000931486 -0.00756173 0)
(0.00384186 -0.0141992 0)
(0.00689493 -0.0167047 -8.84282e-19)
(0.009571 -0.016943 -6.83788e-19)
(0.0117538 -0.0159214 5.70158e-19)
(0.013427 -0.0141677 5.01967e-19)
(0.0145996 -0.0119869 1.79179e-24)
(0.0152775 -0.00957432 0)
(0.0154574 -0.00706173 0)
(0.015128 -0.00453171 0)
(0.0142712 -0.00202597 0)
(0.0128388 0.000438878 0)
(0.0108506 0.00282094 -1.20191e-18)
(0.00829654 0.00509652 0)
(0.00516234 0.00727074 4.02215e-19)
(0.00142966 0.0093734 4.03694e-19)
(-0.00294686 0.0114461 0)
(-0.00794367 0.013501 0)
(-0.0136064 0.0156008 0)
(-0.0199559 0.0177992 0)
(-0.0270143 0.0201319 3.59518e-19)
(-0.0347942 0.0226264 0)
(-0.0433051 0.0253087 -3.34044e-19)
(-0.0525358 0.0281817 0)
(-0.0624628 0.0312243 0)
(-0.0730592 0.0343968 0)
(-0.084299 0.0376507 -5.55298e-19)
(-0.096157 0.0409382 0)
(-0.108606 0.0442148 2.50265e-19)
(-0.121619 0.0474386 -4.74486e-19)
(-0.135168 0.0505718 0)
(-0.149228 0.0535821 0)
(-0.163776 0.0564436 0)
(-0.17879 0.0591373 1.91532e-19)
(-0.194251 0.061651 1.81712e-19)
(-0.210141 0.0639782 0)
(-0.226443 0.0661183 0)
(-0.243143 0.0680747 -3.11669e-19)
(-0.260226 0.0698547 -2.96642e-19)
(-0.27768 0.0714681 2.82611e-19)
(-0.295494 0.0729266 0)
(-0.31366 0.074243 0)
(-0.332168 0.075431 0)
(-0.351012 0.0765039 0)
(-0.370186 0.0774748 -2.25242e-19)
(-0.389687 0.0783564 -2.15849e-19)
(-0.409511 0.0791601 2.07106e-19)
(-0.429655 0.0798966 0)
(-0.450119 0.0805754 0)
(-0.470901 0.0812047 0)
(-0.492002 0.0817919 0)
(-0.513421 0.0823428 -1.70878e-19)
(-0.53516 0.0828626 0)
(-0.557219 0.0833553 0)
(-0.579599 0.083824 -1.53899e-19)
(-0.602302 0.0842709 -1.48935e-19)
(-0.625329 0.0846974 0)
(-0.64868 0.0851044 2.79207e-19)
(-0.672355 0.0854918 -1.35411e-19)
(-0.696356 0.0858593 1.31367e-19)
(-0.720682 0.0862058 0)
(-0.745332 0.0865299 0)
(-0.770305 0.0868297 0)
(-0.795599 0.0871029 0)
(-0.821213 0.0873473 1.13945e-19)
(-0.847142 0.08756 2.21706e-19)
(-0.873383 0.0877386 1.08059e-19)
(-0.899932 0.0878803 -1.05308e-19)
(-0.926784 0.0879831 0)
(-0.953934 0.0880453 2.00139e-19)
(-0.981377 0.088066 1.95309e-19)
(-1.00911 0.0880457 1.90682e-19)
(-1.03712 0.0879867 -1.8625e-19)
(-1.0654 0.087893 0)
(-1.09395 0.0877703 -2.66954e-19)
(-1.12275 0.0876254 0)
(-1.15177 0.0874657 8.49049e-20)
(-1.18095 0.0872856 8.31326e-20)
(-1.21024 0.0870221 0)
(-1.23967 0.0866602 0)
(-1.26923 0.08624 1.54641e-19)
(-1.29889 0.0857702 0)
(-1.32864 0.0852481 1.47635e-19)
(-1.35844 0.0846687 0)
(-1.38827 0.0840276 -1.41104e-19)
(-1.4181 0.0833214 -2.76198e-19)
(-1.44791 0.0825477 0)
(-1.47767 0.081705 0)
(-1.50734 0.0807922 0)
(-1.53691 0.0798088 -1.26589e-19)
(-1.56633 0.0787548 0)
(-1.59558 0.0776303 -1.21406e-19)
(-1.62463 0.0764355 0)
(-1.65343 0.0751711 0)
(-1.68197 0.0738376 2.28551e-19)
(-1.7102 0.0724353 0)
(-1.73808 0.0709647 1.09704e-19)
(-1.76559 0.0694258 0)
(-1.79269 0.0678185 1.05443e-19)
(-1.81934 0.066142 0)
(-1.8455 0.0643951 0)
(-1.87114 0.0625759 0)
(-1.8962 0.060682 2.92572e-19)
(-1.92065 0.0587102 9.57168e-20)
(-1.94444 0.0566569 0)
(-1.96752 0.054518 0)
(-1.98983 0.0522888 0)
(-2.01133 0.0499648 0)
(-2.03195 0.0475412 -8.66067e-20)
(-2.05164 0.0450139 1.69494e-19)
(-2.07031 0.0423795 8.3094e-20)
(-2.08792 0.0396356 -1.62552e-19)
(-2.10437 0.0367817 -1.59112e-19)
(-2.11961 0.033819 -7.79059e-20)
(-2.13355 0.030751 0)
(-2.14613 0.0275839 -1.48881e-19)
(-2.15726 0.0243262 0)
(-2.16689 0.0209886 1.42108e-19)
(-2.17494 0.0175837 6.93741e-20)
(-2.18135 0.0141252 0)
(-2.18607 0.0106262 -1.31987e-19)
(-2.18905 0.00709823 -6.42827e-20)
(-2.19023 0.00355484 0)
(-2.18963 2.97305e-05 -6.08799e-20)
(-2.18722 -0.00344428 1.77153e-19)
(-2.183 -0.00685728 0)
(-2.17698 -0.0102066 0)
(-2.16916 -0.0134929 0)
(-2.15953 -0.0167176 0)
(-2.1481 -0.0198825 1.00403e-19)
(-2.13487 -0.022989 9.65534e-20)
(-2.11984 -0.0260382 0)
(-2.10301 -0.0290301 0)
(-2.08438 -0.0319642 0)
(-2.06395 -0.034839 0)
(-2.04174 -0.0376524 0)
(-2.01773 -0.0404014 0)
(-1.99195 -0.0430827 7.06124e-20)
(-1.9644 -0.0456923 -4.32694e-22)
(-1.9351 -0.0482256 0)
(-1.90407 -0.0506776 0)
(-1.87133 -0.0530428 5.58201e-20)
(-1.83691 -0.0553151 0)
(-1.80084 -0.0574885 -4.7609e-20)
(-1.76315 -0.0595562 -4.4296e-20)
(-1.72389 -0.0615111 0)
(-1.68311 -0.0633451 0)
(-1.64087 -0.0650506 3.21994e-20)
(-1.59722 -0.0666205 5.80002e-20)
(-1.55223 -0.0680486 0)
(-1.50597 -0.0693292 0)
(-1.45854 -0.0704579 0)
(-1.41 -0.0714311 1.34804e-20)
(-1.36044 -0.0722457 -9.87659e-21)
(-1.30997 -0.0728976 0)
(-1.25866 -0.0733825 -7.102e-21)
(-1.20663 -0.0736987 -8.52913e-22)
(-1.15398 -0.0738464 -6.31273e-21)
(-1.1008 -0.073828 0)
(-1.04722 -0.0736482 0)
(-0.993319 -0.0733099 -2.51897e-20)
(-0.939211 -0.0728134 -1.62707e-20)
(-0.884998 -0.0721633 0)
(-0.830782 -0.0713675 0)
(-0.776659 -0.0704384 0)
(-0.722716 -0.0693832 0)
(-0.669038 -0.0682021 -5.82726e-20)
(-0.615716 -0.0669026 0)
(-0.562825 -0.0654988 0)
(-0.510434 -0.0639901 0)
(-0.458618 -0.0623587 0)
(-0.407457 -0.0606117 0)
(-0.357007 -0.0587344 0)
(-0.307356 -0.0566828 -9.19184e-20)
(-0.258546 -0.0544735 0)
(-0.210744 -0.0520593 0)
(-0.163623 -0.0496614 -2.16275e-19)
(-0.11823 -0.0471687 1.13346e-19)
(-0.0707591 -0.0464025 -1.20937e-19)
(-0.0303298 -0.0444715 1.26636e-19)
(0.000992428 -0.0123899 0)
(0.00338571 -0.0201473 2.04572e-18)
(0.00535516 -0.0216925 0)
(0.00678902 -0.020748 5.24159e-19)
(0.00772252 -0.0186119 0)
(0.00814691 -0.015809 0)
(0.008068 -0.0126159 -3.72553e-19)
(0.00748374 -0.00919761 0)
(0.00638209 -0.00565719 0)
(0.00474378 -0.00205375 0)
(0.00253085 0.00157594 0)
(-0.000218682 0.00516104 0)
(-0.00352278 0.008649 1.29746e-18)
(-0.00738592 0.0120246 6.35083e-19)
(-0.0118268 0.0153103 -6.21674e-19)
(-0.0168603 0.0185357 0)
(-0.022502 0.0217323 0)
(-0.0287671 0.0249377 0)
(-0.0356721 0.028199 0)
(-0.0432201 0.0315544 0)
(-0.0514071 0.0350292 5.27162e-19)
(-0.0602219 0.0386366 5.08189e-19)
(-0.0696443 0.0423782 -4.88502e-19)
(-0.0796446 0.0462408 4.68339e-19)
(-0.0901884 0.0501969 0)
(-0.101241 0.0542086 0)
(-0.11277 0.0582326 4.07829e-19)
(-0.124748 0.0622258 0)
(-0.137148 0.0661473 0)
(-0.149947 0.0699605 3.51772e-19)
(-0.163125 0.0736333 3.34651e-19)
(-0.176665 0.0771393 3.18451e-19)
(-0.190555 0.0804582 0)
(-0.204783 0.083576 0)
(-0.219341 0.0864845 -2.75192e-19)
(-0.234222 0.0891812 0)
(-0.249423 0.0916682 0)
(-0.264939 0.0939521 2.39442e-19)
(-0.280768 0.0960422 -2.28968e-19)
(-0.296909 0.0979507 2.19196e-19)
(-0.31336 0.099691 0)
(-0.330121 0.101278 0)
(-0.347191 0.102726 3.86919e-19)
(-0.364571 0.104051 0)
(-0.382261 0.105265 3.57709e-19)
(-0.40026 0.106384 5.16643e-19)
(-0.418571 0.10742 -4.9789e-19)
(-0.437193 0.108383 3.20141e-19)
(-0.456126 0.109283 0)
(-0.475373 0.110131 0)
(-0.494934 0.110932 2.88653e-19)
(-0.514809 0.111694 1.39659e-19)
(-0.534999 0.112422 0)