/*--------------------------------*- C++ -*----------------------------------*\
| =========                 |                                                 |
| \\      /  F ield         | OpenFOAM: The Open Source CFD Toolbox           |
|  \\    /   O peration     | Version:  1.4.2                                 |
|   \\  /    A nd           | Web:      http://www.openfoam.org               |
|    \\/     M anipulation  |                                                 |
\*---------------------------------------------------------------------------*/
FoamFile
{
    version     2.0;
    format      ascii;
    class       volScalarField;
    object      epsilon;
    location    "550";
}
// * * * * * * * * * * * * * * * * * * * * * * * * * * * * * * * * * * * * * //

dimensions      [0 2 -3 0 0 0 0];

internalField   nonuniform List<scalar> 
12225
(
443.026
353.451
290.585
245.345
212.187
187.592
169.243
155.569
145.482
138.207
133.179
129.981
128.296
127.876
128.525
130.078
132.404
135.666
60.1657
73.6156
79.5684
83.6959
87.7156
92.356
97.9715
104.744
112.772
122.107
132.769
144.751
158.016
172.5
188.109
204.703
222.041
240.183
26.2959
33.7101
37.8449
40.6833
42.9301
44.9532
46.9651
49.0936
51.4186
53.9908
56.8425
59.9916
63.4444
67.1952
71.2235
75.4859
79.8933
84.2826
18.7356
22.7237
25.4807
27.3757
28.8176
30.0124
31.0724
32.0709
33.0574
34.0646
35.114
36.2194
37.3879
38.6214
39.9161
41.2616
42.638
44.0014
16.1687
18.1636
19.9329
21.2922
22.3447
23.185
23.8874
24.505
25.0719
25.61
26.1341
26.6545
27.1779
27.7082
28.2465
28.7918
29.34
29.8727
15.2354
16.0865
17.0487
17.9372
18.6896
19.3119
19.8311
20.2729
20.6588
21.0055
21.3253
21.627
21.9164
22.1977
22.4732
22.744
23.0093
23.259
14.8942
15.1701
15.5865
16.0524
16.5066
16.9222
17.2902
17.6106
17.8897
18.1352
18.3544
18.5533
18.7367
18.9081
19.0703
19.2247
19.3713
19.504
14.7876
14.838
14.9916
15.2093
15.454
15.7013
15.9373
16.1549
16.3517
16.5284
16.6869
16.8298
16.9597
17.0789
17.1893
17.2924
17.3888
17.4747
14.7441
14.6884
14.7003
14.7662
14.8676
14.9884
15.1167
15.2444
15.3667
15.4812
15.5868
15.6836
15.7722
15.8534
15.9281
15.9973
16.0614
16.1189
14.7239
14.6134
14.5425
14.5091
14.5063
14.5262
14.5615
14.606
14.6553
14.7061
14.7563
14.8045
14.8501
14.8927
14.9324
14.9694
15.0037
15.0344
14.7149
14.579
14.4657
14.3758
14.3076
14.2585
14.2248
14.2034
14.1911
14.1853
14.1842
14.1861
14.1898
14.1947
14.2001
14.2056
14.2111
14.2159
14.7109
14.5642
14.4318
14.3142
14.211
14.1216
14.0448
13.9789
13.9226
13.8742
13.8325
13.7962
13.7644
13.7362
13.7109
13.6881
13.6673
13.6483
14.7089
14.5577
14.4176
14.2881
14.169
14.0599
13.9603
13.8696
13.787
13.7118
13.6432
13.5805
13.523
13.4702
13.4214
13.3763
13.3344
13.2959
14.7076
14.5544
14.4112
14.2771
14.1517
14.0344
13.9248
13.8224
13.7269
13.6378
13.5546
13.4768
13.4041
13.3361
13.2723
13.2124
13.1563
13.1044
14.7067
14.5523
14.4076
14.2717
14.1438
14.0234
13.91
13.803
13.7022
13.6071
13.5173
13.4325
13.3524
13.2767
13.2051
13.1373
13.0733
13.0138
14.706
14.5507
14.4052
14.2683
14.1394
14.0178
13.9028
13.7942
13.6913
13.5939
13.5015
13.4139
13.3308
13.2519
13.1769
13.1056
13.0381
12.9751
14.7055
14.5497
14.4036
14.2662
14.1367
14.0144
13.8988
13.7893
13.6856
13.5873
13.4939
13.4053
13.321
13.2408
13.1646
13.092
13.0231
12.9588
14.7053
14.5494
14.4031
14.2654
14.1356
14.013
13.8971
13.7874
13.6834
13.5847
13.491
13.402
13.3175
13.237
13.1605
13.0877
13.0186
12.9542
14.7055
14.5497
14.4035
14.266
14.1363
14.0139
13.8982
13.7888
13.6852
13.587
13.494
13.4057
13.322
13.2425
13.1671
13.0954
13.0276
12.9644
14.7059
14.5507
14.4051
14.2684
14.1397
14.0187
13.9047
13.7973
13.6962
13.6009
13.5111
13.4264
13.3465
13.2711
13.1999
13.1326
13.0692
13.0105
14.7068
14.5528
14.4093
14.2755
14.1511
14.0354
13.9281
13.8286
13.7364
13.6508
13.5712
13.4973
13.4284
13.3641
13.304
13.2477
13.1951
13.1468
14.7086
14.5589
14.4228
14.3001
14.1906
14.0933
14.007
13.9305
13.8625
13.8018
13.7472
13.6978
13.6528
13.6115
13.5734
13.5379
13.5048
13.4746
14.7142
14.5802
14.4708
14.3853
14.321
14.274
14.2406
14.2172
14.2011
14.1897
14.1814
14.1749
14.1692
14.1636
14.1579
14.1516
14.1449
14.1381
14.7358
14.6588
14.6349
14.6533
14.7003
14.7638
14.8347
14.9065
14.9751
15.038
15.094
15.1427
15.1843
15.2191
15.2478
15.2711
15.2897
15.3045
14.8205
14.9298
15.1379
15.3945
15.6599
15.912
16.1395
16.3379
16.5068
16.6488
16.7672
16.8656
16.947
17.0144
17.0701
17.1161
17.1543
17.1862
15.1412
15.7854
16.5168
17.2064
17.7957
18.2809
18.6739
18.9895
19.2423
19.4453
19.6093
19.7429
19.853
19.9447
20.0222
20.0887
20.1467
20.1979
16.3188
18.2993
19.9619
21.2348
22.1811
22.8821
23.4045
23.7999
24.1053
24.3458
24.5397
24.7001
24.8367
24.9569
25.0659
25.1678
25.2654
25.3602
20.7543
25.6373
28.6921
30.5982
31.8392
32.663
33.2219
33.6182
33.917
34.1605
34.3762
34.5819
34.7891
35.005
35.2341
35.4786
35.7392
36.015
43.961
54.4815
58.7072
60.4204
60.9757
60.9907
60.8465
60.7562
60.7868
60.9677
61.3079
61.8058
62.4539
63.2423
64.1591
65.192
66.3263
67.5545
332.626
280.253
240.732
210.192
186.153
166.941
151.387
138.654
128.131
119.363
112.008
105.802
100.539
96.0584
92.2311
88.9539
86.1433
83.7302
0.159421
0.224138
0.321743
0.424502
0.527332
0.63216
0.748155
0.892398
1.06355
1.26171
1.49025
1.75654
2.0757
2.43829
2.8432
3.29643
3.80115
4.35945
4.97299
5.64331
6.37198
7.16064
8.01117
8.92577
9.90715
10.9589
12.0856
13.2942
14.5939
15.9987
17.5297
19.2196
21.1213
23.3235
25.9782
29.3445
33.8503
36.5933
39.2692
42.0413
44.9265
47.928
51.0475
54.2862
57.6455
61.1264
64.7297
68.4564
72.3069
76.2815
80.3804
84.6032
88.9496
93.4186
98.0088
102.719
107.546
112.488
117.541
122.702
127.966
133.327
138.779
144.316
149.929
155.611
161.352
167.141
172.969
178.823
184.693
190.565
196.429
202.273
208.086
213.858
219.581
225.251
230.863
236.418
241.92
247.378
252.804
258.217
263.64
269.102
274.639
280.291
286.101
292.121
298.401
305
311.973
319.381
327.28
335.731
344.787
354.502
364.927
376.104
388.075
400.873
414.525
429.053
444.468
460.778
477.978
496.058
514.997
534.765
555.325
576.631
598.625
621.246
644.425
668.086
692.156
716.559
741.233
766.129
791.223
816.528
842.124
868.197
894.025
919.368
944.143
968.277
991.697
1014.33
1036.13
1057.02
1076.96
1095.89
1113.8
1130.61
1146.28
1160.68
1173.62
1184.85
1194.01
1200.52
1203.48
1201.72
1194.2
1180.04
1158.65
1146.24
1130.84
1106.78
1074.43
1035.35
991.41
944.47
896.161
847.827
800.499
754.912
711.555
670.719
632.543
597.05
564.184
533.841
505.878
480.137
456.453
434.657
414.58
396.06
378.938
363.063
348.281
334.437
321.487
309.276
297.507
285.743
273.417
257.693
0.556577
0.451169
0.46667
0.517668
0.595323
0.698432
0.828705
0.986818
1.176
1.39306
1.64054
1.92085
2.23594
2.58585
2.97078
3.39133
3.84798
4.34113
4.87125
5.43888
6.04478
6.68997
7.37578
8.10394
8.87668
9.69684
10.568
11.4947
12.4823
13.5375
14.6682
15.8833
17.193
18.6075
20.134
21.7658
23.454
25.0482
26.6453
28.2851
29.9796
31.7326
33.5453
35.4187
37.3533
39.3495
41.4076
43.528
45.7106
47.9555
50.2625
52.6312
55.0613
57.5519
60.1021
62.711
65.377
68.0985
70.8735
73.6998
76.5747
79.4955
82.4587
85.4608
88.4977
91.5652
94.6586
97.7731
100.904
104.045
107.191
110.338
113.48
116.613
119.732
122.834
125.916
128.977
132.018
135.039
138.044
141.038
144.029
147.025
150.039
153.085
156.178
159.337
162.581
165.931
169.41
173.041
176.847
180.851
185.076
189.543
194.273
199.284
204.59
210.205
216.138
222.395
228.978
235.886
243.112
250.649
258.482
266.595
274.968
283.579
292.404
301.416
310.589
319.898
329.319
338.832
348.422
358.08
367.808
377.619
387.54
397.617
407.926
418.572
429.46
440.302
451.062
461.719
472.252
482.64
492.864
502.905
512.745
522.366
531.748
540.87
549.7
558.188
566.257
573.779
580.56
586.323
590.641
592.97
592.513
588.486
580.061
570.041
557.804
542.535
524.409
503.95
481.791
458.574
434.892
411.25
388.055
365.617
344.152
323.805
304.654
286.732
270.036
254.534
240.178
226.908
214.658
203.358
192.936
183.324
174.453
166.26
158.684
151.673
145.244
139.388
134.094
129.451
125.843
124.536
1.07654
0.752627
0.733554
0.791742
0.89353
1.02824
1.1897
1.37901
1.59758
1.84632
2.12623
2.43815
2.78271
3.16029
3.5711
4.01536
4.49327
5.00518
5.55151
6.13285
6.75
7.40393
8.09585
8.82727
9.59992
10.4159
11.2775
12.1875
13.1487
14.1638
15.2352
16.3645
17.552
18.796
20.0927
21.4353
22.8121
24.2106
25.6422
27.1162
28.6373
30.2079
31.8291
33.5017
35.2261
37.0028
38.8322
40.7144
42.6496
44.638
46.6794
48.7738
50.9208
53.1201
55.3711
57.6731
60.0253
62.4266
64.8757
67.3713
69.9116
72.4948
75.1188
77.7813
80.4799
83.2118
85.9743
88.7643
91.5788
94.4146
97.2688
100.138
103.02
105.912
108.812
111.718
114.629
117.545
120.467
123.395
126.333
129.284
132.253
135.245
138.269
141.332
144.444
147.616
150.859
154.184
157.605
161.134
164.784
168.567
172.496
176.582
180.834
185.262
189.87
194.664
199.647
204.816
210.17
215.702
221.404
227.265
233.272
239.409
245.66
252.009
258.436
264.925
271.46
278.028
284.617
291.22
297.834
304.463
311.113
317.799
324.537
331.352
338.266
345.32
352.352
359.295
366.128
372.837
379.409
385.829
392.085
398.167
404.065
409.776
415.299
420.636
425.788
430.749
435.485
439.908
443.882
447.221
449.465
450.037
448.465
444.805
439.326
432.048
422.753
411.272
397.809
382.748
366.508
349.508
332.138
314.736
297.58
280.891
264.831
249.514
235.01
221.358
208.567
196.629
185.52
175.205
165.645
156.794
148.606
141.034
134.032
127.558
121.57
116.034
110.944
106.305
102.127
98.4765
95.5698
93.8685
1.76915
1.15027
1.08629
1.14706
1.26424
1.41691
1.60079
1.81495
2.05958
2.33517
2.64224
2.98124
3.35254
3.75646
4.19328
4.66327
5.16677
5.70422
6.27614
6.8832
7.52617
8.20597
8.92365
9.68036
10.4774
11.3161
12.198
13.1245
14.0969
15.1163
16.1834
17.2982
18.4599
19.6667
20.9168
22.2079
23.5384
24.9078
26.3188
27.7745
29.2769
30.8275
32.4272
34.0768
35.7767
37.5275
39.3297
41.1837
43.0896
45.0479
47.0586
49.1219
51.2378
53.4062
55.6269
57.8998
60.2243
62.6
65.0263
67.5023
70.0273
72.6001
75.2197
77.8846
80.5936
83.3452
86.1376
88.9693
91.8386
94.7437
97.6831
100.655
103.658
106.691
109.753
112.843
115.962
119.108
122.283
125.487
128.724
131.994
135.301
138.648
142.039
145.479
148.972
152.525
156.142
159.83
163.595
167.442
171.378
175.407
179.534
183.764
188.099
192.54
197.09
201.746
206.505
211.364
216.314
221.349
226.458
231.629
236.849
242.103
247.379
252.659
257.93
263.179
268.393
273.564
278.683
283.748
288.759
293.717
298.63
303.506
308.354
313.186
318.012
322.806
327.457
331.929
336.205
340.268
344.108
347.713
351.075
354.189
357.06
359.701
362.138
364.414
366.583
368.706
370.836
372.953
374.99
376.981
378.347
378.552
377.41
375.157
371.455
366.009
358.818
349.765
339.048
327.015
313.981
300.271
286.181
271.976
257.882
244.081
230.713
217.883
205.661
194.09
183.191
172.968
163.41
154.497
146.203
138.497
131.344
124.71
118.561
112.862
107.583
102.697
98.1933
94.0722
90.342
87.0437
84.2866
82.2285
2.61925
1.61795
1.48393
1.52819
1.64556
1.8092
2.00967
2.24332
2.5088
2.80576
3.1343
3.49468
3.88722
4.31232
4.77039
5.26189
5.78734
6.34733
6.9425
7.5736
8.2414
8.94675
9.69057
10.4738
11.2974
12.1623
13.0695
14.0198
15.014
16.0527
17.1361
18.2643
19.4369
20.6535
21.9136
23.2169
24.5636
25.9546
27.3913
28.875
30.4072
31.9889
33.621
35.3042
37.0392
38.8266
40.667
42.5611
44.5091
46.5117
48.5693
50.6822
52.8507
55.0751
57.3556
59.6924
62.0855
64.5349
67.0406
69.6024
72.22
74.8931
77.6214
80.4043
83.2415
86.1322
89.0758
92.0717
95.1193
98.2177
101.366
104.565
107.812
111.109
114.454
117.847
121.289
124.78
128.32
131.91
135.551
139.244
142.991
146.793
150.652
154.569
158.546
162.585
166.687
170.853
175.086
179.385
183.751
188.184
192.683
197.247
201.873
206.559
211.299
216.089
220.921
225.787
230.677
235.581
240.486
245.381
250.25
255.082
259.862
264.577
269.213
273.757
278.199
282.53
286.744
290.836
294.806
298.654
302.382
305.994
309.494
312.888
316.179
319.301
322.163
324.728
326.976
328.887
330.446
331.638
332.457
332.899
332.976
332.714
332.166
331.407
330.552
329.749
329.173
328.918
328.906
329.141
329.381
329.451
329.349
328.703
326.895
323.511
318.358
311.406
302.872
293.165
282.499
271.147
259.352
247.336
235.298
223.405
211.79
200.558
189.785
179.521
169.798
160.629
152.016
143.95
136.413
129.385
122.84
116.752
111.093
105.837
100.958
96.435
92.2556
88.4179
84.926
81.804
79.1079
76.8894
3.53645
2.11157
1.88103
1.89519
2.00788
2.17823
2.39097
2.63958
2.92116
3.23455
3.57941
3.95585
4.36424
4.80507
5.27896
5.78657
6.32863
6.9059
7.51919
8.1693
8.85706
9.58332
10.3489
11.1546
12.0014
12.8899
13.8209
14.7951
15.813
16.8753
17.9823
19.1343
20.3315
21.574
22.8623
24.1967
25.5779
27.0068
28.4846
30.0124
31.5911
33.2219
34.9055
36.6429
38.4348
40.282
42.1853
44.1453
46.1629
48.2387
50.3733
52.5675
54.8218
57.1368
59.5131
61.9513
64.4517
67.015
69.6414
72.3315
75.0854
77.9036
80.7863
83.7336
86.7459
89.8231
92.9656
96.1733
99.4464
102.785
106.189
109.659
113.195
116.796
120.464
124.199
128
131.868
135.804
139.808
143.879
148.02
152.228
156.506
160.852
165.266
169.748
174.297
178.911
183.588
188.327
193.124
197.977
202.882
207.834
212.828
217.859
222.919
228
233.093
238.188
243.274
248.337
253.364
258.341
263.253
268.086
272.826
277.461
281.977
286.359
290.594
294.67
298.578
302.31
305.859
309.222
312.395
315.376
318.162
320.753
323.145
325.338
327.229
328.728
329.79
330.385
330.487
330.069
329.11
327.596
325.52
322.89
319.735
316.13
312.162
307.997
303.894
299.921
296.297
293.267
291.038
289.761
289.628
290.299
291.028
291.116
289.985
287.252
282.758
276.586
269.005
260.405
251.061
241.176
230.94
220.537
210.128
199.851
189.817
180.112
170.796
161.914
153.489
145.534
138.049
131.026
124.453
118.311
112.58
107.239
102.265
97.6389
93.3421
89.3626
85.6964
82.3446
79.3204
76.6514
74.3486
4.42285
2.56412
2.24077
2.22676
2.33337
2.50746
2.72874
2.98815
3.28145
3.6067
3.96319
4.3509
4.77021
5.22173
5.70625
6.22464
6.77783
7.36676
7.99238
8.65562
9.35738
10.0985
10.8799
11.7024
12.5667
13.4737
14.424
15.4184
16.4574
17.5418
18.6721
19.8488
21.0726
22.3439
23.6635
25.0321
26.4507
27.9201
29.4415
31.0158
32.6442
34.3277
36.0671
37.8636
39.718
41.6314
43.6045
45.6385
47.7341
49.8923
52.1141
54.4003
56.7519
59.1699
61.655
64.2083
66.8305
69.5226
72.2855
75.12
78.027
81.0072
84.0614
87.1906
90.3953
93.6764
97.0346
100.471
103.985
107.579
111.252
115.006
118.841
122.758
126.756
130.837
135.001
139.248
143.579
147.993
152.49
157.07
161.731
166.474
171.297
176.198
181.174
186.224
191.344
196.529
201.777
207.082
212.439
217.842
223.284
228.759
234.258
239.774
245.296
250.813
256.314
261.783
267.207
272.568
277.851
283.035
288.105
293.046
297.848
302.5
306.981
311.274
315.365
319.242
322.894
326.311
329.486
332.411
335.077
337.474
339.592
341.419
342.935
344.004
344.532
344.466
343.763
342.386
340.294
337.454
333.833
329.413
324.185
318.168
311.472
304.136
296.271
288.103
279.891
272.062
265.134
259.643
256.281
255.172
255.725
257.235
258.921
260.01
259.87
258.101
254.579
249.424
242.935
235.507
227.404
218.797
209.856
200.748
191.618
182.59
173.763
165.214
156.998
149.154
141.704
134.658
128.018
121.777
115.926
110.448
105.329
100.55
96.0942
91.9474
88.098
84.5406
81.2742
78.3043
75.6425
73.2838
5.17394
2.94782
2.54976
2.51152
2.61128
2.78641
3.01259
3.27876
3.57953
3.91232
4.27609
4.67066
5.09642
5.55406
6.04448
6.56871
7.12785
7.72299
8.35522
9.02558
9.73508
10.4847
11.2753
12.1078
12.9831
13.902
14.8653
15.8738
16.9283
18.0295
19.1782
20.3752
21.6214
22.9174
24.2643
25.663
27.1145
28.6199
30.1803
31.7969
33.4706
35.2028
36.9944
38.8466
40.7606
42.7374
44.7782
46.8842
49.0564
51.2962
53.6046
55.9829
58.4322
60.9539
63.5491
66.2192
68.9653
71.7887
74.6908
77.6727
80.7359
83.8814
87.1107
90.425
93.8254
97.3133
100.89
104.556
108.314
112.163
116.105
120.142
124.273
128.5
132.824
137.244
141.762
146.377
151.089
155.898
160.804
165.805
170.901
176.088
181.366
186.731
192.18
197.709
203.314
208.99
214.731
220.532
226.386
232.287
238.227
244.199
250.196
256.209
262.23
268.249
274.252
280.226
286.154
292.02
297.803
303.476
309.018
314.414
319.655
324.749
329.653
334.342
338.796
342.999
346.938
350.597
353.964
357.024
359.761
362.157
364.193
365.841
367.04
367.625
367.511
366.635
364.945
362.391
358.921
354.482
349.021
342.501
334.884
326.141
316.28
305.357
293.514
281.06
268.266
255.812
244.379
235.122
228.783
225.341
224.521
225.794
228.373
231.31
233.681
234.76
234.127
231.684
227.598
222.202
215.897
208.903
201.387
193.52
185.464
177.358
169.322
161.448
153.81
146.459
139.429
132.743
126.41
120.433
114.807
109.522
104.568
99.9313
95.5979
91.5556
87.7943
84.3078
81.0931
78.1511
75.4837
73.0801
5.8035
3.26615
2.80489
2.74458
2.83614
3.00935
3.23673
3.50559
3.80964
4.14577
4.51265
4.90995
5.33801
5.79754
6.2895
6.81502
7.37526
7.97144
8.60476
9.27636
9.98736
10.7388
11.5318
12.3673
13.2463
14.1697
15.1384
16.1535
17.2158
18.3263
19.4859
20.6956
21.9564
23.2694
24.6356
26.0562
27.5323
29.0652
30.656
32.3061
34.0167
35.7891
37.6245
39.5243
41.4899
43.5225
45.6234
47.7942
50.0362
52.3509
54.7396
57.204
59.7454
62.3656
65.066
67.8482
70.7139
73.6647
76.7022
79.8281
83.0441
86.3519
89.7531
93.2494
96.8424
100.534
104.325
108.218
112.214
116.314
120.52
124.833
129.253
133.783
138.422
143.171
148.03
153
158.079
163.268
168.565
173.969
179.478
185.088
190.798
196.604
202.501
208.486
214.552
220.693
226.905
233.18
239.512
245.893
252.317
258.779
265.272
271.79
278.329
284.883
291.443
297.997
304.525
311.016
317.458
323.795
329.998
336.045
341.922
347.615
353.099
358.35
363.347
368.071
372.503
376.625
380.419
383.862
386.931
389.597
391.83
393.576
394.691
395.003
394.442
392.944
390.445
386.885
382.199
376.316
369.155
360.655
350.748
339.411
326.614
312.362
296.807
280.479
263.418
246.678
231.317
218.185
207.894
200.838
197.214
196.865
199.178
203.152
207.6
211.415
213.782
214.286
212.883
209.801
205.414
200.103
194.051
187.442
180.455
173.254
165.979
158.746
151.645
144.744
138.093
131.724
125.658
119.904
114.466
109.339
104.517
99.9907
95.7497
91.784
88.0846
84.6451
81.4612
78.5306
75.8496
73.406
6.29911
3.51619
3.00385
2.92377
3.00588
3.17429
3.39921
3.66676
3.97
4.3054
4.67138
5.06746
5.49387
5.95129
6.44066
6.96311
7.51986
8.11215
8.74124
9.40839
10.1148
10.8617
11.6502
12.4814
13.3565
14.2765
15.2427
16.2559
17.3174
18.4283
19.5897
20.8028
22.0688
23.3889
24.7644
26.1965
27.6868
29.2365
30.847
32.5198
34.2564
36.0582
37.9267
39.8635
41.8701
43.9481
46.0992
48.325
50.6272
53.0075
55.4676
58.0095
60.6349
63.3457
66.1438
69.0312
72.0098
75.0817
78.2488
81.5132
84.877
88.3421
91.9106
95.5845
99.3659
103.257
107.259
111.374
115.604
119.95
124.415
128.999
133.703
138.529
143.477
148.547
153.739
159.054
164.49
170.047
175.723
181.515
187.422
193.44
199.565
205.793
212.119
218.537
225.042
231.627
238.285
245.01
251.794
258.63
265.513
272.439
279.405
286.409
293.453
300.54
307.671
314.846
322.026
329.166
336.238
343.204
350.034
356.704
363.193
369.481
375.547
381.365
386.913
392.168
397.108
401.71
405.951
409.802
413.231
416.203
418.684
420.593
421.682
421.795
420.871
418.84
415.629
411.169
405.383
398.187
389.476
379.141
367.068
353.347
337.953
320.788
301.97
282.548
262.654
243.148
224.721
208.047
193.752
182.511
174.975
171.539
172.074
175.805
181.451
187.547
192.808
196.377
197.89
197.389
195.173
191.66
187.162
181.874
175.999
169.727
163.223
156.629
150.058
143.595
137.305
131.236
125.417
119.867
114.597
109.609
104.901
100.467
96.3016
92.3958
88.7427
85.3356
82.1697
79.2407
76.5419
74.0616
6.6537
3.69634
3.14598
3.04907
3.12092
3.28203
3.50115
3.76371
4.06229
4.39312
4.75439
5.14546
5.56645
6.01792
6.50073
7.01595
7.56478
8.14845
8.76827
9.42554
10.1216
10.8576
11.635
12.4549
13.3187
14.2276
15.1829
16.1857
17.2376
18.3396
19.4933
20.6999
21.9609
23.2776
24.6517
26.0846
27.5779
29.1331
30.7519
32.4361
34.1872
36.0071
37.8974
39.8601
41.8969
44.0097
46.2005
48.4713
50.8239
53.2606
55.7834
58.3945
61.096
63.8901
66.7793
69.7657
72.8518
76.0399
79.3323
82.7315
86.2398
89.8597
93.5935
97.4436
101.412
105.502
109.714
114.052
118.516
123.11
127.834
132.689
137.678
142.801
148.058
153.449
158.974
164.633
170.424
176.346
182.397
188.573
194.872
201.29
207.821
214.461
221.204
228.043
234.972
241.983
249.069
256.223
263.435
270.7
278.013
285.371
292.774
300.227
307.74
315.329
323.015
330.745
338.469
346.147
353.745
361.23
368.574
375.75
382.734
389.502
396.031
402.295
408.268
413.926
419.241
424.188
428.74
432.865
436.526
439.69
442.336
444.359
445.372
445.3
444.048
441.532
437.67
432.377
425.564
417.133
406.965
394.887
380.65
364.686
346.955
327.533
306.796
285.342
263.595
242.153
221.541
202.28
184.903
170.05
158.503
151.096
148.396
150.286
155.781
163.262
170.983
177.537
182.095
184.4
184.603
183.077
180.254
176.384
171.692
166.398
160.702
154.771
148.742
142.724
136.799
131.028
125.452
120.102
114.993
110.136
105.533
101.184
97.0854
93.2312
89.6158
86.2333
83.0786
80.1464
77.4285
74.9147
6.86733
3.80744
3.23248
3.12224
3.18367
3.3356
3.54618
3.80054
4.0911
4.4139
4.76698
5.14956
5.56158
6.00347
6.47597
6.98004
7.5168
8.08746
8.69331
9.33568
10.0159
10.7354
11.4955
12.2977
13.1433
14.0338
14.9706
15.9551
16.9889
18.0734
19.2103
20.4011
21.6475
22.9511
24.3137
25.7371
27.2231
28.7735
30.3904
32.0755
33.8311
35.659
37.5614
39.5404
41.5983
43.7372
45.9595
48.2674
50.6635
53.15
55.7296
58.4048
61.1781
64.0523
67.0299
70.1136
73.3064
76.6108
80.0296
83.5657
87.2217
91.0003
94.9044
98.9364
103.099
107.395
111.826
116.395
121.103
125.954
130.948
136.087
141.372
146.803
152.381
158.104
163.974
169.987
176.144
182.441
188.875
195.443
202.141
208.963
215.905
222.958
230.117
237.374
244.72
252.149
259.652
267.222
274.845
282.516
290.231
297.988
305.791
313.648
321.578
329.619
337.755
345.919
354.064
362.148
370.138
378.001
385.709
393.232
400.545
407.622
414.436
420.963
427.172
433.039
438.533
443.628
448.295
452.502
456.212
459.41
462.089
464.068
464.966
464.687
463.108
460.104
455.602
449.491
441.659
431.998
420.398
406.735
390.958
373.258
353.748
332.659
310.376
287.364
264.117
241.159
218.976
198.019
178.711
161.504
146.979
135.942
129.372
128.011
131.722
139.235
148.561
157.719
165.275
170.519
173.347
174.031
173.014
170.668
167.246
163
158.162
152.932
147.475
141.923
136.378
130.915
125.591
120.444
115.5
110.775
106.278
102.013
97.9789
94.1738
90.5935
87.2328
84.0872
81.1508
78.4153
75.8723
6.94424
3.85228
3.26614
3.14657
3.19815
3.33979
3.53985
3.78356
4.06336
4.37526
4.7172
5.08825
5.48821
5.91732
6.37618
6.86562
7.38667
7.94046
8.52827
9.15141
9.81128
10.5093
11.2471
12.0259
12.8476
13.7135
14.6254
15.5849
16.5937
17.6535
18.7662
19.9336
21.1576
22.4402
23.7835
25.1895
26.6604
28.1983
29.8056
31.4846
33.2376
35.0671
36.9755
38.9655
41.0397
43.2006
45.451
47.7938
50.2318
52.7678
55.4048
58.1459
60.994
63.9524
67.024
70.2121
73.5198
76.9503
80.5068
84.1924
88.0102
91.9633
96.0545
100.287
104.663
109.186
113.858
118.681
123.658
128.791
134.081
139.53
145.138
150.907
156.834
162.919
169.16
175.556
182.104
188.801
195.643
202.626
209.743
216.989
224.357
231.838
239.424
247.106
254.876
262.723
270.64
278.623
286.648
294.709
302.804
310.932
319.098
327.312
335.601
344.009
352.489
360.977
369.424
377.789
386.036
394.134
402.051
409.759
417.231
424.44
431.357
437.957
444.21
450.089
455.566
460.614
465.205
469.307
472.891
475.971
478.536
480.296
480.961
480.39
478.439
474.976
469.895
463.065
454.359
443.658
430.865
415.916
398.818
379.668
358.641
336.033
312.244
287.754
263.094
238.805
215.392
193.29
172.86
154.41
138.265
124.906
115.143
110.102
110.677
116.614
126.257
137.254
147.497
155.657
161.23
164.295
165.235
164.524
162.463
159.337
155.416
150.935
146.088
141.033
135.892
130.758
125.7
120.769
116
111.415
107.031
102.854
98.8881
95.1346
91.5911
88.2537
85.1187
82.1805
79.4312
76.8642
6.89159
3.83503
3.2509
3.12646
3.16957
3.30079
3.4893
3.72082
3.98802
4.28698
4.61559
4.97283
5.35832
5.77219
6.21484
6.68699
7.18954
7.72356
8.29027
8.89099
9.52714
10.2002
10.9118
11.6636
12.4573
13.2945
14.1772
15.1073
16.0867
17.1173
18.2013
19.3408
20.5381
21.7955
23.1155
24.5004
25.9528
27.4754
29.0709
30.742
32.4916
34.3225
36.2379
38.2406
40.334
42.5211
44.8052
47.1898
49.6781
52.2736
54.9798
57.8004
60.7387
63.7986
66.9837
70.2975
73.7438
77.3261
81.0481
84.9133
88.9251
93.0867
97.4015
101.872
106.502
111.294
116.25
121.373
126.664
132.126
137.76
143.568
149.55
155.71
162.038
168.533
175.195
182.021
189.007
196.15
203.443
210.88
218.455
226.159
233.984
241.919
249.955
258.081
266.286
274.559
282.888
291.265
299.673
308.106
316.557
325.025
333.515
342.039
350.623
359.311
368.042
376.754
385.396
393.927
402.312
410.516
418.51
426.263
433.748
440.936
447.801
454.316
460.454
466.188
471.492
476.343
480.714
484.573
487.912
490.767
493.084
494.524
494.866
493.94
491.588
487.666
482.03
474.528
465.014
453.359
439.463
423.276
404.813
384.173
361.572
337.353
311.971
285.966
259.925
234.432
210.015
187.111
166.049
147.053
130.285
115.932
104.397
96.5374
93.6584
96.7171
105.16
116.842
129.125
139.954
148.256
153.793
156.826
157.835
157.213
155.277
152.332
148.649
144.453
139.93
135.223
130.443
125.674
120.977
116.398
111.967
107.706
103.626
99.7374
96.0422
92.5412
89.2322
86.1125
83.1776
80.4202
77.8358
6.71812
3.76075
3.19157
3.06724
3.1042
3.22591
3.40303
3.622
3.87591
4.16101
4.47523
4.81748
5.1873
5.58464
6.00978
6.46328
6.94594
7.45877
8.00295
8.57982
9.19083
9.83757
10.5217
11.2451
12.0095
12.817
13.6696
14.5695
15.5191
16.5206
17.5761
18.6884
19.8602
21.0941
22.3932
23.7602
25.1984
26.7108
28.3008
29.9716
31.7266
33.5695
35.5038
37.5333
39.6616
41.8928
44.2307
46.6794
49.243
51.9255
54.7311
57.6641
60.7287
63.9291
67.2696
70.7544
74.3876
78.1734
82.1157
86.2184
90.4852
94.9195
99.5247
104.304
109.26
114.395
119.711
125.211
130.896
136.768
142.826
149.072
155.504
162.121
168.92
175.897
183.048
190.37
197.856
205.502
213.299
221.24
229.316
237.516
245.831
254.247
262.754
271.338
279.985
288.684
297.42
306.183
314.958
323.737
332.513
341.284
350.054
358.836
367.651
376.538
385.434
394.277
403.017
411.613
420.028
428.229
436.185
443.867
451.246
458.297
464.992
471.308
477.218
482.7
487.731
492.292
496.356
499.902
502.942
505.519
507.487
508.523
508.44
507.059
504.209
499.719
493.416
485.121
474.663
461.896
446.712
429.061
408.973
386.588
362.183
336.167
309.077
281.528
254.172
227.628
202.441
179.037
157.71
138.625
121.842
107.375
95.3138
86.0553
80.6012
80.4547
86.4462
97.454
110.808
123.784
134.61
142.589
147.765
150.555
151.43
150.737
148.817
145.977
142.474
138.518
134.277
129.88
125.425
120.986
116.617
112.357
108.234
104.266
100.465
96.8379
93.3881
90.1153
87.0185
84.0942
81.3364
78.7426
6.43711
3.63568
3.09391
2.97517
3.00933
3.12382
3.29113
3.49872
3.74023
4.01216
4.31255
4.64029
4.99489
5.37633
5.78466
6.22018
6.68371
7.17626
7.69902
8.25339
8.8409
9.46324
10.1223
10.82
11.5584
12.3399
13.1666
14.0413
14.9664
15.9447
16.9791
18.0726
19.2284
20.4499
21.7406
23.1039
24.5438
26.0639
27.6682
29.361
31.1463
33.0284
35.012
37.1014
39.3014
41.6166
44.0519
46.6122
49.3024
52.1274
55.0923
58.202
61.4615
64.8757
68.4495
72.1876
76.0948
80.1756
84.4341
88.8745
93.5003
98.3151
103.322
108.523
113.921
119.518
125.315
131.313
137.513
143.915
150.517
157.318
164.316
171.506
178.885
186.447
194.187
202.096
210.168
218.395
226.767
235.273
243.902
252.642
261.48
270.402
279.394
288.439
297.525
306.635
315.756
324.875
333.978
343.057
352.104
361.118
370.102
379.069
388.038
397.037
405.999
414.869
423.598
432.148
440.483
448.569
456.378
463.88
471.049
477.861
484.292
490.32
495.922
501.081
505.778
509.994
513.706
516.905
519.624
521.851
523.348
523.844
523.165
521.128
517.545
512.22
504.948
495.521
483.743
469.456
452.56
433.014
410.887
386.39
359.893
331.894
303.021
273.973
245.45
218.095
192.441
168.88
147.653
128.859
112.482
98.4292
86.6166
77.1133
70.423
67.8138
70.9233
80.0908
93.3698
107.715
120.644
130.879
138.142
142.718
145.104
145.681
144.819
142.855
140.079
136.725
132.982
128.997
124.884
120.727
116.59
112.522
108.556
104.715
101.017
97.4716
94.0846
90.8586
87.7945
84.8902
82.1414
79.5473
6.07123
3.46846
2.96531
2.85819
2.8942
3.00544
3.16656
3.36615
3.59845
3.86027
4.14972
4.46571
4.80767
5.17548
5.56929
5.98958
6.43715
6.91307
7.41862
7.95533
8.52492
9.12928
9.77049
10.4508
11.1727
11.9387
12.7516
13.6144
14.5302
15.5024
16.5345
17.6303
18.7938
20.029
21.3403
22.7322
24.2093
25.7764
27.4386
29.201
31.0687
33.0474
35.1426
37.36
39.7055
42.1849
44.8043
47.5697
50.487
53.5623
56.8015
60.2105
63.795
67.5607
71.513
75.6571
79.998
84.5402
89.2879
94.2448
99.4138
104.798
110.398
116.217
122.254
128.51
134.985
141.677
148.585
155.706
163.037
170.573
178.308
186.236
194.35
202.64
211.098
219.713
228.476
237.373
246.394
255.525
264.752
274.06
283.434
292.857
302.314
311.788
321.263
330.724
340.156
349.547
358.885
368.161
377.37
386.511
395.591
404.623
413.63
422.601
431.483
440.228
448.796
457.15
465.256
473.085
480.609
487.802
494.639
501.1
507.162
512.809
518.022
522.786
527.085
530.901
534.213
537.028
539.361
541.09
541.87
541.559
539.978
536.931
532.21
525.59
516.837
505.718
492.025
475.601
456.398
434.409
409.762
382.761
353.884
323.76
293.116
262.718
233.295
205.481
179.764
156.472
135.768
117.672
102.089
88.8504
77.7626
68.7111
61.8582
57.9647
58.6708
65.4424
77.6167
92.4139
106.831
118.968
128.136
134.424
138.279
140.114
140.315
139.247
137.221
134.496
131.28
127.736
123.991
120.143
116.264
112.41
108.621
104.927
101.349
97.9001
94.5898
91.4236
88.404
85.5311
82.8021
80.2181
5.65766
3.27319
2.81706
2.72825
2.77253
2.88686
3.04795
3.24562
3.47469
3.7322
4.01638
4.32624
4.66136
5.02174
5.40779
5.82021
6.26005
6.72861
7.22747
7.75846
8.32363
8.92526
9.56586
10.2481
10.975
11.7497
12.5756
13.4565
14.3964
15.3996
16.4707
17.6146
18.8366
20.1419
21.5364
23.0259
24.6165
26.3146
28.1268
30.0598
32.1205
34.3162
36.6543
39.1422
41.7875
44.5978
47.5808
50.7441
54.0949
57.6404
61.3875
65.3429
69.5129
73.9033
78.5196
83.3667
88.4488
93.7695
99.3314
105.136
111.185
117.476
124.01
130.784
137.796
145.04
152.514
160.211
168.127
176.255
184.585
193.109
201.816
210.695
219.733
228.916
238.233
247.668
257.207
266.835
276.537
286.297
296.101
305.93
315.767
325.596
335.399
345.159