/*--------------------------------*- C++ -*----------------------------------*\
| =========                 |                                                 |
| \\      /  F ield         | OpenFOAM: The Open Source CFD Toolbox           |
|  \\    /   O peration     | Version:  1.4.2                                 |
|   \\  /    A nd           | Web:      http://www.openfoam.org               |
|    \\/     M anipulation  |                                                 |
\*---------------------------------------------------------------------------*/
FoamFile
{
    version     2.0;
    format      ascii;
    class       volScalarField;
    object      k;
    location    "550";
}
// * * * * * * * * * * * * * * * * * * * * * * * * * * * * * * * * * * * * * //

dimensions      [0 2 -2 0 0 0 0];

internalField   nonuniform List<scalar> 
12225
(
0.315115
0.271063
0.237884
0.212504
0.192899
0.177689
0.165904
0.156844
0.149988
0.144945
0.141408
0.139135
0.13793
0.137629
0.138094
0.139204
0.140859
0.143163
0.365357
0.357609
0.353827
0.353685
0.356736
0.362616
0.371002
0.381597
0.394134
0.408362
0.424044
0.440952
0.458862
0.477555
0.496815
0.516421
0.53607
0.556341
0.370187
0.364636
0.360183
0.356898
0.354767
0.35374
0.353744
0.354697
0.356514
0.359111
0.362409
0.366325
0.370779
0.375683
0.380941
0.386427
0.391954
0.397376
0.371735
0.367477
0.363487
0.359996
0.357015
0.354545
0.352573
0.351071
0.350002
0.349327
0.349008
0.349005
0.349277
0.349785
0.350482
0.351317
0.352227
0.353173
0.372438
0.369049
0.365589
0.362327
0.359333
0.356629
0.354214
0.352078
0.350206
0.348578
0.347175
0.345975
0.344956
0.344096
0.34337
0.342754
0.342223
0.341768
0.37275
0.369943
0.366991
0.364058
0.361249
0.358608
0.356151
0.353882
0.351795
0.349881
0.348128
0.346525
0.34506
0.343718
0.342488
0.341356
0.34031
0.339355
0.372878
0.37041
0.367853
0.365267
0.36272
0.360255
0.3579
0.355671
0.353573
0.351605
0.349761
0.348037
0.346424
0.344914
0.3435
0.342173
0.340929
0.339781
0.372918
0.370599
0.368257
0.365904
0.363574
0.361293
0.359083
0.35696
0.354934
0.353008
0.351183
0.349457
0.347827
0.346286
0.34483
0.343453
0.342152
0.340945
0.372932
0.370687
0.368472
0.366275
0.364107
0.36198
0.359908
0.357901
0.355969
0.354117
0.352348
0.350661
0.349055
0.347528
0.346076
0.344696
0.343386
0.342164
0.372937
0.37073
0.368594
0.366508
0.364469
0.362478
0.360539
0.358657
0.356838
0.355084
0.353398
0.351781
0.350234
0.348754
0.34734
0.345989
0.344701
0.343495
0.372937
0.370745
0.368651
0.366633
0.364682
0.362793
0.360963
0.359192
0.35748
0.355827
0.354236
0.352705
0.351234
0.349822
0.348468
0.34717
0.345929
0.344764
0.372936
0.370747
0.368669
0.366685
0.364784
0.362958
0.361203
0.359513
0.357887
0.35632
0.354813
0.353364
0.35197
0.350631
0.349345
0.34811
0.346927
0.345815
0.372935
0.370745
0.36867
0.366697
0.364818
0.363024
0.36131
0.359669
0.358097
0.356589
0.355144
0.353756
0.352425
0.351147
0.349921
0.348743
0.347617
0.346557
0.372937
0.370743
0.368665
0.366693
0.36482
0.363037
0.361339
0.35972
0.358175
0.356699
0.355288
0.353938
0.352646
0.351409
0.350223
0.349087
0.348003
0.346984
0.372939
0.370742
0.368661
0.366687
0.364812
0.36303
0.361335
0.359722
0.358186
0.356721
0.355324
0.35399
0.352716
0.351498
0.350334
0.349221
0.348161
0.347167
0.372943
0.370744
0.36866
0.366683
0.364805
0.363021
0.361324
0.35971
0.358173
0.35671
0.355315
0.353984
0.352715
0.351503
0.350346
0.349242
0.34819
0.347207
0.372948
0.370749
0.368663
0.366682
0.364802
0.363014
0.361315
0.359698
0.358159
0.356693
0.355296
0.353964
0.352693
0.351481
0.350324
0.34922
0.34817
0.347188
0.372951
0.370752
0.368664
0.366683
0.3648
0.363011
0.36131
0.35969
0.358148
0.35668
0.35528
0.353945
0.352671
0.351456
0.350296
0.349189
0.348136
0.347152
0.372947
0.370748
0.368661
0.366679
0.364797
0.363007
0.361303
0.359682
0.358137
0.356665
0.35526
0.35392
0.352641
0.351419
0.350252
0.349137
0.348076
0.347084
0.372943
0.370743
0.368657
0.366675
0.364791
0.362998
0.361291
0.359663
0.35811
0.356627
0.35521
0.353855
0.35256
0.35132
0.350133
0.348998
0.347916
0.346902
0.372938
0.370739
0.368652
0.366666
0.364775
0.36297
0.361245
0.359596
0.358016
0.356503
0.355051
0.353659
0.352323
0.351041
0.34981
0.34863
0.347501
0.346442
0.372934
0.370732
0.368636
0.366633
0.364713
0.36287
0.361097
0.359389
0.357744
0.356159
0.354632
0.353161
0.351745
0.350381
0.34907
0.34781
0.346605
0.345471
0.372927
0.37071
0.368581
0.366521
0.364523
0.362582
0.360697
0.358867
0.357093
0.355376
0.353717
0.352116
0.350574
0.34909
0.347664
0.346296
0.344988
0.34376
0.37291
0.370639
0.368409
0.366205
0.364032
0.361896
0.359805
0.357768
0.355792
0.353883
0.352043
0.350274
0.348579
0.346956
0.345404
0.343923
0.342514
0.341196
0.372856
0.370429
0.367957
0.365457
0.362966
0.360512
0.358118
0.355803
0.353577
0.351447
0.349414
0.34748
0.345641
0.343895
0.34224
0.340672
0.339191
0.337813
0.372693
0.369884
0.366925
0.363921
0.36096
0.358091
0.355339
0.352722
0.350246
0.347911
0.345716
0.343655
0.341722
0.339912
0.338218
0.336633
0.335154
0.333792
0.37223
0.368599
0.364817
0.361096
0.357538
0.354186
0.35106
0.348166
0.345498
0.343048
0.340807
0.338761
0.336898
0.335204
0.333665
0.332269
0.331006
0.329878
0.370946
0.365685
0.36055
0.355801
0.351491
0.347645
0.344266
0.341334
0.338817
0.33668
0.334889
0.333408
0.332208
0.331258
0.330531
0.330002
0.329647
0.329456
0.366354
0.35712
0.349251
0.3429
0.337989
0.334393
0.331963
0.330547
0.330004
0.330212
0.331063
0.332466
0.334341
0.336617
0.339234
0.342136
0.345272
0.348636
0.329178
0.293648
0.265348
0.242403
0.223549
0.207891
0.194769
0.183688
0.174272
0.166229
0.159329
0.153387
0.148258
0.143819
0.139973
0.136637
0.133744
0.131234
0.00356741
0.00468754
0.00596358
0.00717276
0.00828741
0.00935053
0.0104597
0.0117601
0.0132137
0.0148007
0.0165294
0.0184339
0.0205916
0.0229117
0.0253686
0.0279823
0.030754
0.0336789
0.0367508
0.039964
0.0433136
0.0467959
0.0504084
0.0541501
0.0580221
0.0620279
0.0661747
0.0704752
0.0749499
0.0796329
0.0845785
0.0898754
0.0956671
0.102185
0.109798
0.119083
0.130952
0.137892
0.144481
0.151143
0.157918
0.16481
0.171817
0.178938
0.186171
0.193515
0.200967
0.208524
0.216186
0.223948
0.231808
0.239762
0.247807
0.255937
0.26415
0.272439
0.280799
0.289223
0.297706
0.306238
0.314812
0.32342
0.33205
0.340693
0.349337
0.357971
0.366581
0.375154
0.383676
0.392134
0.400512
0.408798
0.416977
0.425037
0.432966
0.440756
0.448399
0.45589
0.46323
0.470421
0.477471
0.484395
0.491211
0.497943
0.504623
0.511287
0.517978
0.524745
0.53164
0.53872
0.546044
0.553674
0.56167
0.570095
0.579006
0.588458
0.598501
0.609179
0.62053
0.632583
0.645362
0.658879
0.673141
0.688143
0.703875
0.720316
0.737438
0.755203
0.773569
0.792485
0.811893
0.83173
0.851929
0.872417
0.893119
0.913961
0.934869
0.955774
0.976617
0.997353
1.01796
1.03844
1.05886
1.07935
1.09953
1.11905
1.13787
1.15594
1.17323
1.18972
1.20536
1.22015
1.23405
1.24707
1.2592
1.27044
1.28077
1.29014
1.29849
1.30567
1.31149
1.31564
1.31761
1.31659
1.31152
1.30246
1.28756
1.27551
1.26578
1.24981
1.22715
1.19862
1.16542
1.12884
1.09013
1.05034
1.01038
0.97094
0.932535
0.895526
0.860153
0.826559
0.794808
0.764903
0.73681
0.710468
0.685795
0.662695
0.641063
0.620788
0.601757
0.583849
0.56694
0.550889
0.535657
0.521125
0.506971
0.492697
0.477629
0.458375
0.00517158
0.00888961
0.0119896
0.0147947
0.0175192
0.0203164
0.0232953
0.0264103
0.0297424
0.033263
0.0370193
0.0410397
0.0453378
0.0499128
0.0547606
0.0598744
0.0652458
0.0708662
0.0767275
0.0828228
0.0891461
0.0956928
0.10246
0.109446
0.116651
0.124078
0.131731
0.139618
0.147748
0.156136
0.164797
0.173751
0.183019
0.192622
0.202569
0.212832
0.223276
0.233537
0.243858
0.254324
0.26496
0.27577
0.286755
0.297912
0.309241
0.320738
0.3324
0.344225
0.356208
0.368347
0.380636
0.393072
0.405648
0.41836
0.4312
0.444161
0.457234
0.470412
0.483683
0.497036
0.510459
0.523937
0.537456
0.550998
0.564546
0.578078
0.591574
0.605009
0.61836
0.6316
0.644702
0.657637
0.670376
0.68289
0.695151
0.70713
0.718801
0.73014
0.741126
0.751742
0.761978
0.771828
0.781295
0.790388
0.799127
0.807541
0.815669
0.82356
0.831274
0.838881
0.846457
0.85409
0.861871
0.869897
0.878268
0.887083
0.896441
0.906437
0.91716
0.928692
0.941108
0.954471
0.968837
0.98425
1.00075
1.01835
1.03708
1.05695
1.07796
1.10011
1.1234
1.14782
1.17338
1.20005
1.22784
1.25675
1.28678
1.31794
1.35024
1.38371
1.41838
1.45426
1.49139
1.52984
1.56887
1.60866
1.64924
1.6906
1.73273
1.77562
1.81924
1.86354
1.90847
1.95393
1.99983
2.04605
2.0924
2.13865
2.18446
2.22925
2.27211
2.31176
2.34661
2.37482
2.39408
2.39906
2.38827
2.36729
2.33321
2.28402
2.22128
2.1476
2.06596
1.97925
1.89008
1.80061
1.71256
1.62716
1.54531
1.46756
1.3942
1.32537
1.26103
1.20107
1.14532
1.09353
1.04548
1.00089
0.959505
0.921069
0.88533
0.852041
0.820961
0.791848
0.764403
0.738451
0.713675
0.689719
0.666572
0.644872
0.00802635
0.0139754
0.0187521
0.0231683
0.0274896
0.0318183
0.0361489
0.0405836
0.0451994
0.0500471
0.055164
0.0605731
0.0662882
0.0723163
0.0786575
0.0853075
0.0922603
0.0995096
0.10705
0.114876
0.122984
0.131371
0.140035
0.148975
0.158193
0.16769
0.17747
0.187536
0.197894
0.208549
0.219505
0.230766
0.242328
0.254185
0.266322
0.27871
0.291311
0.30409
0.317076
0.330288
0.343734
0.357415
0.371333
0.385485
0.399871
0.414487
0.429332
0.444404
0.459698
0.475212
0.490942
0.506884
0.523032
0.539382
0.555926
0.572659
0.589572
0.606656
0.6239
0.641295
0.658825
0.676478
0.694238
0.712087
0.730005
0.747971
0.765963
0.783955
0.801919
0.819828
0.83765
0.855353
0.872903
0.890266
0.907406
0.924288
0.940878
0.957143
0.973051
0.988573
1.00369
1.01837
1.03262
1.04641
1.05977
1.07269
1.0852
1.09733
1.10914
1.12066
1.13198
1.14317
1.15431
1.16551
1.17687
1.18848
1.20047
1.21295
1.22602
1.23977
1.25432
1.26974
1.28612
1.3035
1.32195
1.34151
1.36219
1.38403
1.40703
1.43118
1.4565
1.48298
1.51061
1.53938
1.5693
1.60036
1.63257
1.66594
1.70048
1.73621
1.77316
1.81135
1.85081
1.89114
1.93214
1.97384
2.01628
2.05948
2.10348
2.14833
2.19407
2.24074
2.28841
2.33713
2.38701
2.43816
2.4907
2.54476
2.60036
2.65726
2.71478
2.77166
2.82593
2.87425
2.90986
2.92539
2.92154
2.90043
2.85982
2.79969
2.7222
2.63061
2.5287
2.4202
2.30849
2.19643
2.08624
1.97955
1.87748
1.78073
1.68966
1.6044
1.52488
1.45095
1.38233
1.31872
1.2598
1.20521
1.15463
1.10772
1.06416
1.02365
0.985886
0.950598
0.917485
0.886333
0.856902
0.829018
0.802912
0.779777
0.0111741
0.0198517
0.0265533
0.0325349
0.038143
0.0435228
0.0488562
0.0542722
0.0598628
0.0656939
0.0718098
0.0782398
0.0850018
0.092106
0.0995567
0.107354
0.115496
0.123981
0.132805
0.141966
0.151462
0.161293
0.171457
0.181954
0.192784
0.203948
0.215449
0.227286
0.239463
0.251979
0.264834
0.278025
0.291547
0.305392
0.31955
0.33401
0.348761
0.363798
0.379128
0.394755
0.410683
0.426911
0.44344
0.46027
0.477399
0.494827
0.512551
0.530571
0.548884
0.567487
0.586379
0.605556
0.625014
0.644749
0.664756
0.68503
0.705564
0.726351
0.747381
0.768646
0.790134
0.811833
0.83373
0.855807
0.878049
0.900436
0.922946
0.945557
0.968243
0.990976
1.01373
1.03647
1.05916
1.08176
1.10425
1.12659
1.14872
1.17063
1.19226
1.21358
1.23456
1.25516
1.27536
1.29513
1.31446
1.33332
1.35172
1.36967
1.38718
1.40427
1.42098
1.43737
1.45348
1.4694
1.4852
1.50098
1.51682
1.53284
1.54913
1.56581
1.58296
1.60069
1.61908
1.6382
1.65812
1.67889
1.70052
1.72306
1.7465
1.77084
1.79608
1.82219
1.84917
1.87697
1.9056
1.93502
1.96523
1.9962
2.02793
2.0604
2.0936
2.12753
2.16219
2.19702
2.23193
2.2669
2.30196
2.33714
2.37251
2.40817
2.44424
2.48086
2.51825
2.55665
2.59645
2.63817
2.68241
2.72991
2.7814
2.83744
2.89815
2.96283
3.02941
3.09276
3.14485
3.18014
3.19735
3.19317
3.1648
3.11213
3.03728
2.94388
2.83636
2.7193
2.59698
2.47302
2.3503
2.23095
2.11645
2.00772
1.90528
1.80934
1.71985
1.63665
1.55945
1.48791
1.42166
1.3603
1.30347
1.25078
1.20187
1.1564
1.11406
1.07455
1.03759
1.00298
0.97053
0.940222
0.91235
0.887965
0.0145121
0.026001
0.034589
0.0418732
0.0484664
0.0547382
0.0609118
0.0671358
0.0735152
0.080126
0.0870218
0.09424
0.101806
0.109735
0.118039
0.126722
0.13579
0.145243
0.155083
0.16531
0.175924
0.186926
0.198315
0.210093
0.222258
0.234811
0.247752
0.261081
0.274798
0.288902
0.30339
0.31826
0.333508
0.34913
0.365119
0.381473
0.398187
0.415262
0.432698
0.450499
0.468665
0.487197
0.506096
0.525361
0.544992
0.56499
0.585354
0.606083
0.627177
0.648634
0.670454
0.692634
0.715172
0.738067
0.761316
0.784914
0.808857
0.833141
0.85776
0.882707
0.907973
0.93355
0.959426
0.98559
1.01203
1.03873
1.06566
1.09282
1.12018
1.14772
1.1754
1.20321
1.23111
1.25906
1.28704
1.315
1.34291
1.37071
1.39838
1.42587
1.45313
1.48013
1.5068
1.53313
1.55906
1.58456
1.6096
1.63416
1.65821
1.68175
1.70477
1.72728
1.74931
1.77088
1.79203
1.81283
1.83333
1.85361
1.87376
1.89385
1.91399
1.93426
1.95474
1.97551
1.99665
2.01819
2.04019
2.06265
2.0856
2.10901
2.13288
2.15717
2.18184
2.20686
2.23218
2.25775
2.28351
2.30942
2.33543
2.36147
2.38748
2.41339
2.43917
2.46417
2.48823
2.51127
2.53325
2.55422
2.57423
2.5934
2.6119
2.62997
2.64792
2.66618
2.68545
2.70667
2.73105
2.76006
2.79552
2.83925
2.89295
2.95736
3.03116
3.10953
3.18408
3.24906
3.29784
3.32386
3.32248
3.29214
3.23408
3.15181
3.0502
2.93468
2.81048
2.68218
2.55347
2.42714
2.30514
2.18878
2.07878
1.97551
1.87904
1.78922
1.7058
1.62845
1.55676
1.49035
1.4288
1.37172
1.31872
1.26946
1.2236
1.18085
1.14093
1.10364
1.06888
1.03666
1.00723
0.981336
0.0177261
0.0319089
0.0420451
0.0503978
0.057898
0.064982
0.0719027
0.078827
0.0858731
0.0931277
0.100654
0.108499
0.116696
0.12527
0.134238
0.143614
0.153407
0.163625
0.174272
0.185353
0.19687
0.208825
0.221219
0.234052
0.247325
0.261037
0.275189
0.28978
0.304808
0.320274
0.336175
0.352509
0.369275
0.38647
0.404092
0.422139
0.440612
0.45951
0.478835
0.498588
0.51877
0.539383
0.560427
0.581903
0.603812
0.626156
0.648934
0.672148
0.695797
0.719883
0.744406
0.769366
0.794763
0.820596
0.846865
0.87357
0.900708
0.928277
0.956275
0.984698
1.01354
1.0428
1.07247
1.10253
1.13299
1.16383
1.19504
1.2266
1.25849
1.2907
1.32321
1.35598
1.389
1.42223
1.45565
1.4892
1.52287
1.5566
1.59034
1.62406
1.6577
1.69121
1.72453
1.75761
1.79039
1.82282
1.85483
1.88638
1.91741
1.94787
1.97773
2.00695
2.0355
2.06337
2.09056
2.11708
2.14294
2.16818
2.19284
2.217
2.2407
2.26402
2.28703
2.30981
2.33242
2.35491
2.37733
2.39969
2.42201
2.44426
2.46644
2.48849
2.51036
2.53199
2.55331
2.57421
2.59462
2.61442
2.6335
2.65175
2.66902
2.68516
2.70005
2.71293
2.72351
2.73161
2.73715
2.74011
2.74052
2.73849
2.73417
2.72787
2.71994
2.71092
2.7017
2.69365
2.68851
2.68857
2.69688
2.71697
2.7529
2.8078
2.88298
2.97409
3.07291
3.17088
3.258
3.32441
3.36228
3.36724
3.33865
3.27916
3.19377
3.08864
2.97007
2.84373
2.71434
2.58551
2.45984
2.33909
2.22435
2.1162
2.01486
1.92029
1.8323
1.75058
1.67476
1.60443
1.53919
1.47864
1.42239
1.37009
1.32139
1.27601
1.23368
1.19423
1.15754
1.12365
1.09271
1.06523
0.0205751
0.0370633
0.0484817
0.0578021
0.0661243
0.0739374
0.0815203
0.0890555
0.0966729
0.104468
0.112514
0.120866
0.129567
0.138649
0.148138
0.158054
0.168415
0.179232
0.190515
0.202272
0.214508
0.227226
0.24043
0.25412
0.268297
0.282962
0.298115
0.313756
0.329885
0.3465
0.363602
0.381189
0.399262
0.41782
0.436862
0.456389
0.476401
0.4969
0.517887
0.539364
0.561333
0.583794
0.606751
0.630205
0.654157
0.67861
0.703566
0.729026
0.754993
0.781469
0.808456
0.835956
0.863971
0.892503
0.921554
0.951126
0.98122
1.01184
1.04298
1.07464
1.10683
1.13954
1.17276
1.20651
1.24076
1.27552
1.31077
1.34652
1.38273
1.41941
1.45653
1.49408
1.53203
1.57036
1.60903
1.64801
1.68727
1.72677
1.76646
1.80629
1.8462
1.88614
1.92605
1.96585
2.00547
2.04485
2.08389
2.12254
2.16069
2.19828
2.23523
2.27147
2.30691
2.34151
2.37522
2.40798
2.43977
2.47059
2.50042
2.52929
2.55722
2.58427
2.61047
2.63588
2.66057
2.68458
2.70796
2.73072
2.75286
2.77438
2.79525
2.81542
2.83482
2.85337
2.87095
2.88745
2.90272
2.9166
2.9289
2.93942
2.9479
2.95411
2.95774
2.95784
2.95405
2.94612
2.93389
2.91726
2.89622
2.8708
2.84113
2.80751
2.77028
2.72997
2.68748
2.64441
2.60296
2.56608
2.53784
2.5237
2.53061
2.56519
2.63187
2.72668
2.84281
2.97076
3.09817
3.21149
3.29845
3.35032
3.36314
3.33768
3.27846
3.19218
3.08625
2.96765
2.8423
2.71485
2.58872
2.46629
2.34908
2.23799
2.13345
2.03558
1.94427
1.85928
1.78029
1.7069
1.63874
1.5754
1.5165
1.4617
1.41066
1.36308
1.31874
1.27744
1.23907
1.20365
1.17125
1.14219
0.0228459
0.0413756
0.0538423
0.0639602
0.072972
0.0814046
0.0895529
0.0976092
0.10571
0.113958
0.122433
0.131197
0.140301
0.149784
0.159681
0.170017
0.180815
0.192092
0.203864
0.216141
0.22893
0.242239
0.256072
0.270431
0.285319
0.300738
0.316689
0.333172
0.350188
0.367739
0.385825
0.404445
0.423603
0.443297
0.46353
0.484303
0.505618
0.527477
0.549882
0.572836
0.596341
0.620399
0.645015
0.670189
0.695926
0.722229
0.749101
0.776545
0.804566
0.833166
0.86235
0.892123
0.922488
0.95345
0.985013
1.01718
1.04996
1.08336
1.11737
1.152
1.18726
1.22315
1.25967
1.29682
1.3346
1.373
1.41204
1.4517
1.49197
1.53285
1.57432
1.61637
1.65898
1.70214
1.74581
1.78996
1.83457
1.87958
1.92496
1.97066
2.01662
2.06277
2.10905
2.15538
2.20168
2.24786
2.29382
2.33947
2.38471
2.42942
2.47349
2.51683
2.55931
2.60083
2.64131
2.68063
2.71874
2.75556
2.79105
2.82517
2.85791
2.88929
2.91931
2.94803
2.97546
3.00167
3.02668
3.05051
3.07316
3.09462
3.11485
3.13381
3.15142
3.16757
3.18215
3.19498
3.20588
3.21463
3.22097
3.22461
3.22519
3.22231
3.21537
3.20324
3.18558
3.16208
3.13254
3.09679
3.05474
3.00636
2.9517
2.89098
2.82454
2.75285
2.67662
2.59735
2.51743
2.44035
2.37026
2.31474
2.28286
2.28499
2.32671
2.40805
2.52607
2.67296
2.83556
2.99685
3.13913
3.24757
3.31298
3.33266
3.30964
3.25076
3.16448
3.05924
2.94244
2.81998
2.69632
2.57459
2.45688
2.3445
2.23817
2.13819
2.04459
1.95724
1.87584
1.80009
1.7296
1.66401
1.60294
1.54606
1.49305
1.44363
1.39755
1.35463
1.31477
1.27791
1.24409
1.21348
0.0246654
0.0448519
0.0581045
0.0688208
0.078364
0.0872857
0.0958883
0.104367
0.112862
0.121478
0.1303
0.139394
0.148815
0.158611
0.168819
0.179471
0.190594
0.202211
0.214339
0.226993
0.240183
0.25392
0.268209
0.283056
0.298466
0.314441
0.330985
0.3481
0.365789
0.384053
0.402895
0.422317
0.442322
0.462911
0.484088
0.505856
0.528217
0.551175
0.574732
0.598894
0.623662
0.649042
0.675037
0.701651
0.728889
0.756756
0.785255
0.814393
0.844174
0.874606
0.905693
0.937442
0.969859
1.00295
1.03673
1.0712
1.10636
1.14223
1.17881
1.21612
1.25415
1.29291
1.33242
1.37267
1.41367
1.45542
1.49793
1.54119
1.58521
1.62998
1.6755
1.72174
1.76871
1.81638
1.86474
1.91375
1.96339
2.01361
2.06438
2.11564
2.16733
2.2194
2.27176
2.32434
2.37704
2.42977
2.48241
2.53486
2.58698
2.63864
2.68972
2.74006
2.78953
2.83798
2.88526
2.93125
2.97581
3.01884
3.06024
3.09992
3.13782
3.17393
3.20823
3.24072
3.27142
3.30036
3.32756
3.35303
3.37675
3.39872
3.4189
3.43723
3.45363
3.46799
3.48016
3.48997
3.49718
3.50155
3.50274
3.5004
3.4941
3.4833
3.46685
3.44361
3.41331
3.37564
3.33036
3.27728
3.21628
3.14725
3.07011
2.98499
2.89221
2.79238
2.68599
2.574
2.45871
2.34467
2.2344
2.13745
2.06363
2.0223
2.02131
2.0673
2.16407
2.30923
2.49208
2.69397
2.89174
3.06286
3.19042
3.26595
3.28934
3.26667
3.20727
3.12114
3.01739
2.90347
2.78508
2.66629
2.54991
2.43775
2.33086
2.22983
2.13485
2.0459
1.96278
1.88524
1.81294
1.74555
1.68272
1.62412
1.56945
1.51844
1.47086
1.42651
1.38527
1.34708
1.31189
1.27979
0.0260536
0.0475041
0.0612911
0.0724031
0.0823085
0.0915758
0.100509
0.109302
0.118094
0.12699
0.136076
0.145419
0.155079
0.165104
0.175536
0.186409
0.197755
0.209597
0.221958
0.234853
0.248299
0.262307
0.276885
0.292043
0.307787
0.324122
0.341054
0.358588
0.376727
0.395476
0.414839
0.43482
0.455423
0.476652
0.498512
0.521006
0.54414
0.567918
0.592345
0.617426
0.643166
0.669571
0.696646
0.724397
0.75283
0.781951
0.811767
0.842285
0.873513
0.905459
0.938131
0.971537
1.00569
1.04059
1.07626
1.1127
1.14993
1.18795
1.22678
1.26643
1.30691
1.34823
1.39039
1.43342
1.47732
1.52209
1.56775
1.61429
1.66173
1.71007
1.75929
1.8094
1.86039
1.91225
1.96496
2.01849
2.07281
2.12791
2.18372
2.2402
2.2973
2.35495
2.41306
2.47156
2.53034
2.58929
2.64831
2.70725
2.76598
2.82434
2.88217
2.9393
2.99556
3.05076
3.10473
3.15728
3.20825
3.25747
3.30479
3.3501
3.39328
3.43427
3.47303
3.50953
3.54377
3.57574
3.60543
3.63284
3.65794
3.68071
3.70111
3.71907
3.7345
3.7473
3.7573
3.76433
3.76814
3.76846
3.76494
3.75716
3.7447
3.7269
3.70195
3.66882
3.62729
3.57706
3.51792
3.44966
3.37213
3.28521
3.18871
3.08253
2.96675
2.84291
2.71141
2.57243
2.42764
2.28459
2.14531
2.01659
1.90518
1.81882
1.7666
1.75969
1.80966
1.92402
2.10049
2.32385
2.56775
2.80128
2.99718
3.13794
3.21774
3.24036
3.21538
3.15434
3.06829
2.9665
2.85616
2.74253
2.62924
2.51872
2.41247
2.31137
2.21584
2.126
2.04178
1.96298
1.88934
1.82055
1.75631
1.6963
1.64025
1.58789
1.539
1.49338
1.4509
1.41145
1.37496
1.34146
0.0270263
0.049371
0.0634618
0.0747759
0.0848751
0.0943402
0.103473
0.112466
0.121451
0.130534
0.139797
0.149307
0.159123
0.169293
0.179861
0.190862
0.202327
0.214285
0.226757
0.239765
0.253324
0.26745
0.282154
0.297449
0.313342
0.329843
0.346958
0.364697
0.383063
0.402065
0.421709
0.442
0.462945
0.48455
0.506821
0.529764
0.553387
0.577696
0.602697
0.628398
0.654805
0.681926
0.709768
0.738339
0.767647
0.797701
0.82851
0.860083
0.89243
0.925561
0.959487
0.99422
1.02977
1.06616
1.10339
1.14147
1.18043
1.22028
1.26103
1.30269
1.34529
1.38883
1.43333
1.47881
1.52527
1.57274
1.62122
1.67072
1.72125
1.77281
1.82542
1.87907
1.93375
1.98946
2.04618
2.10389
2.16257
2.22219
2.2827
2.34406
2.40622
2.46909
2.5326
2.59667
2.66118
2.72602
2.79106
2.85616
2.92116
2.98589
3.05017
3.1138
3.17656
3.23825
3.29864
3.35753
3.41469
3.46991
3.52302
3.57382
3.62218
3.66799
3.71119
3.75171
3.7895
3.82452
3.85673
3.8861
3.9126
3.93616
3.95675
3.97429
3.98868
3.99982
4.00756
4.01171
4.01204
4.00828
4.00008
3.98705
3.96884
3.94474
3.91186
3.86988
3.81837
3.75696
3.68552
3.6038
3.51164
3.4089
3.29539
3.17072
3.03388
2.88912
2.73664
2.5776
2.41479
2.25245
2.09377
1.94309
1.80486
1.68436
1.58859
1.52791
1.51696
1.57283
1.70802
1.92031
2.18759
2.47304
2.73716
2.94948
3.09459
3.17144
3.1886
3.15886
3.09532
3.00935
2.90993
2.80367
2.69524
2.58778
2.48334
2.38314
2.28787
2.19784
2.1131
2.03356
1.95902
1.88922
1.8239
1.76278
1.7056
1.65211
1.6021
1.55536
1.51176
1.47116
1.43345
1.39865
0.0276061
0.0505079
0.0646987
0.07604
0.0861747
0.0956942
0.104898
0.113971
0.123044
0.132214
0.141562
0.15115
0.161035
0.171262
0.181874
0.192906
0.204389
0.21635
0.228816
0.241806
0.25534
0.269435
0.284106
0.299367
0.315229
0.331704
0.348803
0.366534
0.384907
0.403932
0.423616
0.443969
0.464999
0.486715
0.509126
0.53224
0.556067
0.580614
0.605892
0.63191
0.658677
0.686203
0.714497
0.743571
0.773435
0.804099
0.835576
0.867878
0.901017
0.935007
0.969862
1.0056
1.04222
1.07976
1.11823
1.15764
1.19801
1.23936
1.28171
1.32508
1.36948
1.41493
1.46146
1.50907
1.5578
1.60765
1.65864
1.71078
1.76409
1.81859
1.87426
1.93113
1.9892
2.04845
2.10887
2.17045
2.23316
2.29698
2.36186
2.42777
2.49464
2.5624
2.63097
2.70025
2.77014
2.84051
2.91122
2.98212
3.05303
3.12378
3.19415
3.26393
3.33287
3.4007
3.46719
3.53209
3.59514
3.65608
3.71469
3.77074
3.82406
3.87451
3.92196
3.96632
4.00749
4.0454
4.07998
4.11115
4.13886
4.16304
4.18362
4.20052
4.21365
4.22289
4.2281
4.22911
4.22573
4.21769
4.20466
4.18634
4.16248
4.1319
4.09169
4.04152
3.98082
3.90889
3.826
3.73172
3.62585
3.50828
3.37904
3.2382
3.08621
2.9253
2.75688
2.583
2.40646
2.23044
2.05817
1.89302
1.7383
1.5975
1.47485
1.3767
1.31377
1.30371
1.37009
1.53172
1.78514
2.09773
2.41969
2.70401
2.92064
3.0597
3.12653
3.13433
3.09822
3.03187
2.94627
2.84966
2.74787
2.64492
2.54344
2.44512
2.35092
2.26139
2.17673
2.09696
2.02196
1.95155
1.88549
1.82355
1.7655
1.7111
1.66016
1.61245
1.56785
1.52621
1.4874
1.45141
0.0278171
0.0509758
0.0650947
0.0763135
0.0863431
0.0957852
0.104936
0.113975
0.123027
0.132185
0.141521
0.151095
0.160956
0.171148
0.181709
0.192672
0.204067
0.215922
0.228261
0.241107
0.254481
0.268401
0.282885
0.297948
0.313605
0.32987
0.346757
0.364278
0.382444
0.401268
0.420762
0.440937
0.461804
0.483375
0.505662
0.528677
0.55243
0.576935
0.602203
0.628246
0.655077
0.682709
0.711155
0.740427
0.77054
0.801508
0.833347
0.86607
0.899695
0.934239
0.969717
1.00615
1.04355
1.08195
1.12136
1.1618
1.20329
1.24586
1.28953
1.33432
1.38025
1.42735
1.47563
1.52512
1.57584
1.6278
1.68104
1.73557
1.7914
1.84855
1.90703
1.96686
2.02804
2.09057
2.15442
2.21958
2.28604
2.35376
2.42272
2.49287
2.56414
2.63646
2.70976
2.78393
2.85885
2.9344
3.01042
3.08674
3.16319
3.23957
3.31565
3.39125
3.46598
3.53958
3.6118
3.68233
3.7509
3.81721
3.88098
3.94196
3.99994
4.05472
4.10616
4.15409
4.1984
4.23895
4.27565
4.30838
4.33707
4.36161
4.38193
4.39793
4.40952
4.41659
4.419
4.4166
4.40921
4.39659
4.37844
4.35463
4.3249
4.28722
4.23946
4.18113
4.11163
4.03042
3.93731
3.83198
3.7142
3.58395
3.44142
3.28713
3.12206
2.94778
2.7662
2.57977
2.39135
2.20409
2.02125
1.84601
1.68131
1.52979
1.39403
1.27718
1.18456
1.12693
1.1251
1.21024
1.40733
1.70762
2.06295
2.41022
2.69942
2.90626
3.02932
3.08058
3.0767
3.03372
2.96487
2.88017
2.78684
2.68985
2.59255
2.49709
2.40481
2.31649
2.23252
2.15304
2.07804
2.0074
1.94096
1.87851
1.81984
1.76476
1.71307
1.66458
1.61913
1.57658
1.53678
1.49973
0.027682
0.0508318
0.0647413
0.075719
0.0855261
0.0947753
0.103761
0.112659
0.121588
0.130634
0.139862
0.149326
0.15907
0.169132
0.179545
0.190339
0.201543
0.213181
0.225279
0.237858
0.250941
0.264548
0.278697
0.293407
0.308695
0.324578
0.341072
0.358192
0.375954
0.394371
0.413459
0.433232
0.453706
0.474895
0.496816
0.519481
0.542908
0.567112
0.592107
0.617911
0.644538
0.672006
0.700331
0.72953
0.759621
0.790623
0.822553
0.855431
0.889278
0.924113
0.959957
0.996834
1.03477
1.07378
1.11389
1.15513
1.19752
1.24108
1.28585
1.33185
1.37911
1.42764
1.47748
1.52865
1.58117
1.63507
1.69036
1.74708
1.80524
1.86485
1.92595
1.98853
2.05262
2.11824
2.18531
2.25384
2.32381
2.3952
2.46798
2.54209
2.61748
2.69408
2.77179
2.85052
2.93013
3.0105
3.09146
3.17283
3.25442
3.336
3.41735
3.49819
3.57822
3.65712
3.7346
3.81033
3.88399
3.95526
4.02381
4.08935
4.15164
4.21045
4.26556
4.3168
4.36398
4.40695
4.44555
4.47965
4.50913
4.53387
4.55378
4.56874
4.57866
4.58343
4.58292
4.57701
4.56553
4.54823
4.52492
4.49559
4.45975
4.41483
4.35959
4.29336
4.21553
4.12558
4.0231
3.90774
3.77927
3.63768
3.4833
3.31683
3.13941
2.9527
2.75888
2.5607
2.36133
2.16415
1.97261
1.78997
1.61908
1.46227
1.32135
1.19784
1.09378
1.01361
0.968642
0.984327
1.10067
1.34538
1.69587
2.08434
2.43898
2.71481
2.89852
2.99813
3.0308
3.0147
2.9654
2.89486
2.81178
2.72222
2.6303
2.53873
2.44922
2.36284
2.28019
2.20155
2.12703
2.05659
1.99012
1.92747
1.86847
1.81295
1.76073
1.71162
1.66548
1.62217
1.58154
1.54357
0.0272225
0.0501244
0.0637198
0.0743702
0.0838641
0.0928256
0.10155
0.110212
0.118923
0.127764
0.136794
0.146059
0.155595
0.165436
0.175607
0.186136
0.197047
0.208364
0.220109
0.232306
0.244976
0.258141
0.27182
0.286035
0.300805
0.31615
0.332088
0.348638
0.36582
0.383651
0.402145
0.421322
0.441203
0.461806
0.483151
0.505256
0.52814
0.551824
0.576328
0.601671
0.627874
0.654958
0.682944
0.711854
0.74171
0.772535
0.804352
0.837185
0.871059
0.905998
0.942029
0.979178
1.01747
1.05694
1.09761
1.1395
1.18266
1.2271
1.27286
1.31997
1.36845
1.41833
1.46964
1.5224
1.57665
1.6324
1.68968
1.74851
1.80892
1.87091
1.93451
1.99972
2.06657
2.13504
2.20512
2.27679
2.35003
2.42483
2.50114
2.57892
2.6581
2.73861
2.82036
2.90324
2.98712
3.07186
3.1573
3.24323
3.32946
3.41575
3.50184
3.58745
3.67226
3.75596
3.8382
3.91863
3.99691
4.07268
4.14558
4.2153
4.28155
4.34406
4.40257
4.45686
4.5067
4.5519
4.59226
4.62762
4.65783
4.68273
4.70222
4.71618
4.72449
4.72705
4.72374
4.71446
4.69901
4.67719
4.6489
4.61415
4.57183
4.51969
4.45694
4.38285
4.29677
4.19813
4.08639
3.96116
3.82216
3.6694
3.50326
3.32456
3.13466
2.93548
2.72959
2.52011
2.3106
2.10478
1.90634
1.71863
1.54446
1.38593
1.24442
1.12068
1.01519
0.929044
0.866479
0.841127
0.88615
1.05053
1.35459
1.7507
2.15328
2.49274
2.73786
2.88878
2.96128
2.97503
2.94776
2.89345
2.82234
2.74165
2.65631
2.56964
2.48379
2.40011
2.31943
2.24221
2.16866
2.09885
2.03274
1.97023
1.91119
1.85549
1.80297
1.75345
1.7068
1.66289
1.62158
1.58285
0.026466
0.0488974
0.0620968
0.0723616
0.0814784
0.0900801
0.098468
0.106815
0.115232
0.12379
0.132542
0.141525
0.150772
0.160309
0.170156
0.180329
0.190854
0.201751
0.213042
0.224751
0.236898
0.249507
0.262598
0.276196
0.290321
0.304995
0.320239
0.336077
0.352529
0.369617
0.387363
0.40579
0.42492
0.444778
0.465386
0.486769
0.50895
0.531955
0.555808
0.580534
0.606159
0.63271
0.660213
0.688696
0.718185
0.74871
0.780298
0.812979
0.846784
0.881741
0.917883
0.955239
0.993843
1.03373
1.07492
1.11746
1.16137
1.20669
1.25346
1.30169
1.35142
1.40268
1.4555
1.50991
1.56592
1.62356
1.68285
1.74381
1.80646
1.87082
1.93689
2.00469
2.07421
2.14546
2.21842
2.29308
2.36941
2.44738
2.52697
2.6081
2.69073
2.77477
2.86014
2.94672
3.03438
3.12297
3.21232
3.30224
3.39251
3.48289
3.5731
3.66285
3.75183
3.83969
3.92607
4.01061
4.09293
4.17265
4.24939
4.32281
4.39258
4.4584
4.51998
4.57703
4.6293
4.67655
4.71855
4.7551
4.78601
4.81111
4.83027
4.84335
4.85023
4.8508
4.84495
4.83253
4.81335
4.78725
4.7542
4.71391
4.66465
4.60507
4.53445
4.45205
4.3572
4.24922
4.12754
3.99167
3.84131
3.67651
3.49773
3.30602
3.10302
2.89111
2.6733
2.45321
2.23481
2.02216
1.8191
1.62901
1.45452
1.29747
1.15883
1.03883
0.937123
0.853299
0.78806
0.746854
0.749083
0.839839
1.07118
1.43793
1.86163
2.25149
2.55377
2.75598
2.8699
2.91549
2.91221
2.87588
2.81827
2.74778
2.6702
2.58945
2.50813
2.42793
2.3499
2.27469
2.20264
2.13393
2.06858
2.00657
1.94782
1.89221
1.83963
1.78992
1.74296
1.69864
1.65682
1.61749
0.025461
0.0472044
0.0599299
0.0697632
0.0784592
0.0866541
0.0946579
0.102642
0.110712
0.118931
0.127342
0.135974
0.14485
0.153991
0.163413
0.173134
0.183173
0.19355
0.204286
0.215402
0.226923
0.238871
0.25127
0.264144
0.277518
0.291415
0.30586
0.320878
0.336495
0.352737
0.369629
0.387201
0.405478
0.424491
0.444266
0.464835
0.486226
0.508469
0.531597
0.555641
0.580632
0.606604
0.63359