/*--------------------------------*- C++ -*----------------------------------*\
| =========                 |                                                 |
| \\      /  F ield         | OpenFOAM: The Open Source CFD Toolbox           |
|  \\    /   O peration     | Version:  1.4.2                                 |
|   \\  /    A nd           | Web:      http://www.openfoam.org               |
|    \\/     M anipulation  |                                                 |
\*---------------------------------------------------------------------------*/
FoamFile
{
    version     2.0;
    format      ascii;
    class       volScalarField;
    object      p;
    location    "550";
}
// * * * * * * * * * * * * * * * * * * * * * * * * * * * * * * * * * * * * * //

dimensions      [0 2 -2 0 0 0 0];

internalField   nonuniform List<scalar> 
12225
(
-3.37127
-4.20874
-4.45777
-4.55494
-4.66011
-4.76316
-4.85397
-4.93622
-5.0139
-5.08874
-5.16176
-5.2341
-5.30704
-5.38219
-5.46198
-5.55038
-5.65407
-5.79943
-3.53761
-4.21589
-4.45575
-4.55654
-4.66073
-4.76207
-4.8517
-4.93301
-5.00981
-5.0838
-5.15598
-5.22749
-5.29959
-5.37383
-5.4525
-5.53919
-5.63995
-5.77077
-3.71665
-4.21185
-4.44497
-4.55422
-4.65858
-4.7585
-4.84745
-4.92843
-5.00489
-5.07848
-5.1502
-5.22113
-5.29245
-5.3655
-5.44211
-5.52465
-5.61528
-5.71579
-3.87381
-4.22942
-4.44787
-4.5615
-4.6643
-4.76172
-4.84933
-4.92958
-5.00542
-5.07841
-5.14949
-5.21965
-5.2899
-5.36128
-5.43502
-5.51222
-5.59252
-5.67308
-4.00364
-4.26082
-4.45849
-4.57267
-4.6731
-4.76766
-4.85346
-4.93251
-5.00732
-5.07929
-5.14931
-5.21824
-5.28687
-5.35593
-5.42602
-5.49725
-5.56796
-5.63397
-4.11672
-4.30057
-4.47407
-4.58573
-4.68303
-4.7745
-4.85834
-4.93605
-5.00969
-5.08049
-5.14926
-5.21668
-5.28336
-5.34969
-5.41578
-5.4811
-5.54354
-5.59922
-4.21698
-4.34615
-4.49439
-4.60068
-4.69392
-4.7818
-4.86323
-4.93926
-5.01148
-5.08092
-5.14821
-5.21388
-5.27832
-5.34165
-5.40363
-5.4634
-5.51895
-5.56719
-4.29315
-4.388
-4.51541
-4.61515
-4.70418
-4.78854
-4.86746
-4.94167
-5.01235
-5.08031
-5.14607
-5.20999
-5.2723
-5.33295
-5.39153
-5.4471
-5.49793
-5.54161
-4.35417
-4.42609
-4.53606
-4.62941
-4.71426
-4.79519
-4.87163
-4.94394
-5.013
-5.07941
-5.14358
-5.20575
-5.26602
-5.32422
-5.37987
-5.43208
-5.47942
-5.51994
-4.41428
-4.46769
-4.56032
-4.64622
-4.72612
-4.80307
-4.87655
-4.94656
-5.01361
-5.07814
-5.14039
-5.20048
-5.25841
-5.31393
-5.36655
-5.41547
-5.45962
-5.49747
-4.47263
-4.51181
-4.58808
-4.66555
-4.73982
-4.81223
-4.88223
-4.94947
-5.01413
-5.0764
-5.13639
-5.19411
-5.24945
-5.30213
-5.3517
-5.3975
-5.43877
-5.4744
-4.5284
-4.55713
-4.61879
-4.68722
-4.75527
-4.82266
-4.88866
-4.95267
-5.0145
-5.07414
-5.13155
-5.18662
-5.23917
-5.28893
-5.3355
-5.37841
-5.41714
-5.45091
-4.58076
-4.60209
-4.65137
-4.7107
-4.77215
-4.83416
-4.89575
-4.95607
-5.01468
-5.07133
-5.12584
-5.17804
-5.22768
-5.27451
-5.31822
-5.35848
-5.39497
-5.42719
-4.62872
-4.64493
-4.68424
-4.73499
-4.78979
-4.84625
-4.90315
-4.95945
-5.01451
-5.06789
-5.11929
-5.16846
-5.21515
-5.25911
-5.30014
-5.33801
-5.37254
-5.40343
-4.67089
-4.68359
-4.71529
-4.7585
-4.80699
-4.85805
-4.91022
-4.96238
-5.01372
-5.06368
-5.11187
-5.15799
-5.20177
-5.24302
-5.28158
-5.31732
-5.35014
-5.37987
-4.70526
-4.71563
-4.74185
-4.779
-4.822
-4.86817
-4.91593
-4.9641
-5.01181
-5.05843
-5.10349
-5.14667
-5.18773
-5.2265
-5.26285
-5.29671
-5.32804
-5.35676
-4.72882
-4.73778
-4.76049
-4.79341
-4.83228
-4.87456
-4.91867
-4.96344
-5.00797
-5.05159
-5.09386
-5.13444
-5.1731
-5.20971
-5.24417
-5.27646
-5.30653
-5.33437
-4.73649
-4.74495
-4.76639
-4.79755
-4.83445
-4.87464
-4.9166
-4.95921
-5.0016
-5.04314
-5.0834
-5.12207
-5.15898
-5.19399
-5.22705
-5.25815
-5.28727
-5.3144
-4.72755
-4.73647
-4.75893
-4.79097
-4.82827
-4.86841
-4.90999
-4.95195
-4.99349
-5.03406
-5.07329
-5.11092
-5.1468
-5.18086
-5.21307
-5.24343
-5.27194
-5.2986
-4.70594
-4.71632
-4.74196
-4.7771
-4.81665
-4.85829
-4.90079
-4.94322
-4.98488
-5.02531
-5.06421
-5.10143
-5.13685
-5.17043
-5.20218
-5.23212
-5.26027
-5.28662
-4.67419
-4.68738
-4.71861
-4.75884
-4.80201
-4.8462
-4.8905
-4.93411
-4.97646
-5.01724
-5.05627
-5.09344
-5.12873
-5.16211
-5.19364
-5.22335
-5.25127
-5.27742
-4.6335
-4.65164
-4.69144
-4.73848
-4.78616
-4.83355
-4.88015
-4.92532
-4.96867
-5.01007
-5.04944
-5.08679
-5.12212
-5.15548
-5.18692
-5.2165
-5.24427
-5.27024
-4.58412
-4.6107
-4.66269
-4.71785
-4.77044
-4.82133
-4.87045
-4.91729
-4.96174
-5.00384
-5.04366
-5.08128
-5.11676
-5.15019
-5.18163
-5.21115
-5.2388
-5.26459
-4.52545
-4.56616
-4.63452
-4.69833
-4.75571
-4.81013
-4.86174
-4.91021
-4.9557
-4.9985
-5.03878
-5.0767
-5.11237
-5.14591
-5.17739
-5.2069
-5.23446
-5.26005
-4.45623
-4.51992
-4.60886
-4.68087
-4.7425
-4.80027
-4.8542
-4.90409
-4.95048
-4.99387
-5.03456
-5.07276
-5.10863
-5.1423
-5.17388
-5.20342
-5.23095
-5.25637
-4.37469
-4.47429
-4.58721
-4.66581
-4.73084
-4.79165
-4.8476
-4.89865
-4.94576
-4.98964
-5.03066
-5.06911
-5.10517
-5.13902
-5.17076
-5.20046
-5.22808
-5.25341
-4.27731
-4.43288
-4.57072
-4.65302
-4.72063
-4.78421
-4.84191
-4.89392
-4.94166
-4.986
-5.0274
-5.06614
-5.10248
-5.1366
-5.16865
-5.1987
-5.22668
-5.25231
-4.15245
-4.4015
-4.56194
-4.64336
-4.71249
-4.77858
-4.83777
-4.89056
-4.93881
-4.98354
-5.02523
-5.06421
-5.10076
-5.1351
-5.16742
-5.19786
-5.22641
-5.25283
-3.99148
-4.3907
-4.56905
-4.6444
-4.71316
-4.78064
-4.8405
-4.89347
-4.94178
-4.98657
-5.0283
-5.06731
-5.10388
-5.13829
-5.17077
-5.20158
-5.23094
-5.25932
-3.82858
-4.37415
-4.56904
-4.64171
-4.71103
-4.77987
-4.8405
-4.89386
-4.94247
-4.98753
-5.02952
-5.06878
-5.1056
-5.14027
-5.17304
-5.20431
-5.23459
-5.26791
-5.90465
-5.90432
-5.90453
-5.90528
-5.9064
-5.90776
-5.90926
-5.91088
-5.91264
-5.91453
-5.91655
-5.91874
-5.92122
-5.92411
-5.92741
-5.93114
-5.93535
-5.94008
-5.94536
-5.95121
-5.95766
-5.96471
-5.97236
-5.98061
-5.98947
-5.9989
-6.00892
-6.0195
-6.03063
-6.04229
-6.05448
-6.06717
-6.08033
-6.09399
-6.10822
-6.12314
-6.13871
-6.15472
-6.17109
-6.18786
-6.20503
-6.2226
-6.24056
-6.25891
-6.27763
-6.29671
-6.31615
-6.33593
-6.35605
-6.3765
-6.39727
-6.41835
-6.43972
-6.4614
-6.48335
-6.50558
-6.52807
-6.55082
-6.57381
-6.59703
-6.62046
-6.64408
-6.6679
-6.6919
-6.71608
-6.74044
-6.76498
-6.7897
-6.81462
-6.83975
-6.8651
-6.8907
-6.91658
-6.94277
-6.96933
-6.99628
-7.02371
-7.05167
-7.08026
-7.1096
-7.1398
-7.17101
-7.2034
-7.23712
-7.27236
-7.30933
-7.34826
-7.3894
-7.43301
-7.47939
-7.52883
-7.58164
-7.63814
-7.69864
-7.76347
-7.83292
-7.90727
-7.98677
-8.07163
-8.16197
-8.25786
-8.35927
-8.46605
-8.57788
-8.6943
-8.81457
-8.93775
-9.06257
-9.18747
-9.31052
-9.4294
-9.54131
-9.64301
-9.73081
-9.8005
-9.84729
-9.86572
-9.84974
-9.79304
-9.68929
-9.53195
-9.31358
-9.02558
-8.65933
-8.20767
-7.6649
-7.02632
-6.28844
-5.44927
-4.50855
-3.4682
-2.33261
-1.10872
0.19388
1.56266
2.98192
4.43312
5.89569
7.34834
8.77009
10.1401
11.4369
12.6396
13.7314
14.706
15.5701
16.342
17.0173
17.5762
18.019
18.3576
18.6057
18.7769
18.8844
18.9403
18.9553
18.9384
18.8974
18.8385
18.7668
18.6866
18.6009
18.5124
18.4233
18.335
18.2487
18.1655
18.086
18.0109
17.9408
17.8762
17.8178
17.7664
17.7231
17.6901
17.6707
17.6707
17.7003
17.7867
17.9563
-5.90462
-5.90441
-5.90457
-5.90521
-5.90605
-5.90692
-5.90782
-5.90874
-5.90973
-5.91083
-5.91206
-5.91347
-5.91513
-5.91712
-5.9195
-5.92233
-5.92564
-5.92948
-5.93388
-5.93885
-5.94442
-5.95061
-5.9574
-5.96481
-5.97283
-5.98145
-5.99068
-6.00049
-6.01089
-6.02186
-6.0334
-6.04551
-6.05817
-6.07137
-6.08506
-6.09912
-6.11349
-6.12832
-6.14372
-6.15959
-6.1759
-6.19261
-6.20972
-6.22721
-6.24507
-6.26329
-6.28185
-6.30074
-6.31996
-6.33951
-6.35936
-6.37951
-6.39995
-6.42067
-6.44167
-6.46294
-6.48447
-6.50624
-6.52825
-6.55047
-6.57291
-6.59553
-6.61834
-6.64132
-6.66448
-6.68782
-6.71133
-6.73503
-6.75892
-6.78302
-6.80734
-6.83192
-6.85678
-6.88195
-6.90749
-6.93344
-6.95986
-6.98684
-7.01445
-7.04282
-7.07208
-7.10236
-7.13382
-7.16663
-7.20097
-7.23705
-7.2751
-7.31537
-7.35813
-7.40366
-7.45225
-7.50423
-7.5599
-7.61958
-7.6836
-7.75226
-7.82585
-7.90461
-7.98877
-8.07848
-8.17383
-8.27482
-8.38134
-8.4931
-8.60968
-8.73042
-8.85439
-8.98041
-9.10699
-9.23229
-9.35406
-9.46961
-9.57579
-9.669
-9.74513
-9.79953
-9.82684
-9.8211
-9.77607
-9.68562
-9.54347
-9.34219
-9.07261
-8.72594
-8.29532
-7.77515
-7.16069
-6.44835
-5.63599
-4.72318
-3.71154
-2.60508
-1.41037
-0.136609
1.2042
2.59688
4.02347
5.46432
6.89933
8.30853
9.67107
10.9646
12.1675
13.2656
14.2571
15.1497
15.9443
16.63
17.2009
17.6623
18.0244
18.2988
18.4977
18.6329
18.7156
18.7559
18.7624
18.7427
18.703
18.6484
18.5833
18.511
18.4343
18.3554
18.276
18.1976
18.1212
18.0476
17.9778
17.9123
17.8517
17.7968
17.7486
17.7084
17.6781
17.6612
17.6635
17.6937
17.7753
17.9034
-5.90204
-5.90233
-5.90291
-5.9037
-5.90449
-5.90523
-5.90591
-5.90652
-5.90714
-5.90784
-5.90868
-5.90973
-5.91103
-5.91266
-5.91467
-5.9171
-5.91999
-5.92337
-5.92728
-5.93173
-5.93675
-5.94235
-5.94852
-5.95529
-5.96264
-5.97058
-5.9791
-5.9882
-5.99786
-6.00808
-6.01886
-6.03018
-6.04205
-6.05447
-6.06742
-6.08084
-6.09469
-6.10896
-6.12369
-6.13886
-6.15445
-6.17045
-6.18686
-6.20364
-6.2208
-6.23832
-6.25619
-6.27441
-6.29295
-6.31183
-6.33101
-6.3505
-6.37029
-6.39037
-6.41072
-6.43135
-6.45223
-6.47337
-6.49474
-6.51634
-6.53815
-6.56016
-6.58236
-6.60475
-6.62732
-6.65007
-6.67301
-6.69614
-6.71947
-6.74301
-6.76679
-6.79083
-6.81516
-6.83981
-6.86484
-6.89029
-6.91622
-6.94271
-6.96986
-6.99777
-7.02657
-7.0564
-7.08741
-7.11977
-7.15366
-7.18929
-7.22689
-7.26671
-7.30901
-7.35407
-7.40219
-7.4537
-7.50891
-7.56814
-7.63173
-7.69999
-7.77321
-7.85167
-7.9356
-8.02519
-8.12057
-8.22175
-8.32865
-8.44103
-8.55848
-8.68038
-8.80587
-8.9338
-9.06274
-9.19088
-9.31606
-9.43562
-9.54649
-9.6451
-9.72741
-9.78887
-9.82419
-9.82744
-9.7924
-9.7131
-9.58356
-9.39627
-9.14148
-8.81029
-8.39623
-7.89375
-7.29813
-6.60574
-5.81434
-4.92337
-3.93426
-2.85072
-1.67914
-0.428522
0.889281
2.25923
3.66348
5.08288
6.49805
7.88906
9.23343
10.5064
11.6877
12.7717
13.7675
14.6766
15.4875
16.1911
16.7847
17.2735
17.6659
17.9721
18.2029
18.3691
18.4814
18.549
18.5806
18.5835
18.564
18.5273
18.4779
18.4194
18.3548
18.2863
18.2161
18.1456
18.0761
18.0086
17.944
17.883
17.8264
17.775
17.7297
17.6921
17.664
17.6484
17.6505
17.6761
17.7429
17.8229
-5.89715
-5.89822
-5.89955
-5.90074
-5.90172
-5.90252
-5.90318
-5.90376
-5.90432
-5.90495
-5.90571
-5.90668
-5.9079
-5.90944
-5.91134
-5.91365
-5.9164
-5.91962
-5.92334
-5.92759
-5.93237
-5.93771
-5.94361
-5.95008
-5.95712
-5.96473
-5.97291
-5.98165
-5.99094
-6.00079
-6.01117
-6.02208
-6.03351
-6.04546
-6.05791
-6.07086
-6.08428
-6.09817
-6.11251
-6.12729
-6.14251
-6.15815
-6.1742
-6.19064
-6.20747
-6.22467
-6.24222
-6.26013
-6.27837
-6.29695
-6.31586
-6.33507
-6.35459
-6.3744
-6.3945
-6.41487
-6.4355
-6.45639
-6.47752
-6.49887
-6.52045
-6.54222
-6.5642
-6.58636
-6.60872
-6.63126
-6.65398
-6.6769
-6.70002
-6.72335
-6.74692
-6.77074
-6.79485
-6.81928
-6.84408
-6.8693
-6.895
-6.92126
-6.94817
-6.97582
-7.00436
-7.03391
-7.06461
-7.09665
-7.13021
-7.16549
-7.20273
-7.24216
-7.28407
-7.32873
-7.37646
-7.42757
-7.48239
-7.54127
-7.60453
-7.67252
-7.74555
-7.82392
-7.90791
-7.99774
-8.09356
-8.19543
-8.30331
-8.41699
-8.5361
-8.66007
-8.78807
-8.91901
-9.05148
-9.18374
-9.31364
-9.43859
-9.55552
-9.66089
-9.75069
-9.82036
-9.86466
-9.87764
-9.85303
-9.7849
-9.66735
-9.49266
-9.25052
-8.932
-8.5309
-8.0417
-7.45967
-6.78114
-6.00371
-5.12665
-4.15116
-3.08065
-1.92127
-0.681984
0.62539
1.98589
3.38167
4.79378
6.20278
7.58692
8.92065
10.1783
11.3459
12.43
13.4378
14.3576
15.1773
15.8915
16.499
17.0043
17.415
17.7405
17.9911
18.1771
18.3084
18.3943
18.4429
18.4614
18.4561
18.4321
18.3941
18.3457
18.29
18.2294
18.166
18.1016
18.0374
17.9745
17.9138
17.8563
17.8027
17.7538
17.7106
17.6744
17.647
17.6308
17.6297
17.6468
17.6938
17.734
-5.89074
-5.89267
-5.89499
-5.89681
-5.89814
-5.89918
-5.90003
-5.90077
-5.90149
-5.90226
-5.90314
-5.9042
-5.90549
-5.90708
-5.909
-5.9113
-5.91402
-5.91718
-5.92081
-5.92494
-5.92959
-5.93477
-5.94048
-5.94675
-5.95357
-5.96095
-5.96888
-5.97736
-5.98639
-5.99596
-6.00606
-6.01669
-6.02784
-6.0395
-6.05166
-6.06432
-6.07747
-6.09109
-6.10517
-6.11971
-6.13469
-6.15009
-6.16592
-6.18214
-6.19876
-6.21576
-6.23313
-6.25086
-6.26894
-6.28736
-6.30612
-6.3252
-6.34458
-6.36427
-6.38425
-6.4045
-6.42503
-6.44581
-6.46684
-6.4881
-6.50958
-6.53127
-6.55317
-6.57526
-6.59755
-6.62002
-6.64268
-6.66554
-6.68859
-6.71185
-6.73534
-6.75907
-6.78308
-6.8074
-6.83207
-6.85716
-6.88272
-6.90882
-6.93555
-6.96301
-6.99132
-7.02061
-7.05103
-7.08275
-7.11596
-7.15086
-7.1877
-7.22671
-7.26818
-7.31239
-7.35966
-7.41031
-7.46469
-7.52314
-7.58604
-7.65372
-7.72653
-7.80483
-7.88892
-7.97906
-8.07546
-8.1782
-8.28729
-8.40258
-8.52375
-8.65026
-8.78135
-8.91597
-9.05276
-9.19002
-9.32563
-9.45705
-9.58122
-9.69463
-9.79327
-9.87256
-9.92728
-9.95141
-9.93861
-9.88292
-9.77843
-9.61704
-9.3879
-9.08201
-8.69334
-8.2164
-7.64644
-6.97965
-6.2135
-5.34706
-4.38121
-3.31904
-2.16645
-0.932438
0.371199
1.72977
3.12541
4.53908
5.95039
7.33466
8.66443
9.91809
11.0919
12.1942
13.2174
14.1444
14.9694
15.6895
16.3047
16.8191
17.2401
17.5768
17.8393
18.0375
18.1812
18.2791
18.3392
18.3685
18.3732
18.3583
18.3285
18.2875
18.2383
18.1835
18.1253
18.0653
18.005
17.9456
17.8879
17.8329
17.7812
17.7339
17.6918
17.656
17.628
17.6095
17.6034
17.6101
17.6376
17.646
-5.88385
-5.88653
-5.88981
-5.89229
-5.89407
-5.89546
-5.89665
-5.8977
-5.8987
-5.89973
-5.90084
-5.90211
-5.90359
-5.90533
-5.90737
-5.90977
-5.91255
-5.91575
-5.9194
-5.92352
-5.92814
-5.93327
-5.93892
-5.9451
-5.95182
-5.95909
-5.96689
-5.97524
-5.98412
-5.99354
-6.00349
-6.01396
-6.02495
-6.03645
-6.04846
-6.06096
-6.07395
-6.08742
-6.10136
-6.11576
-6.1306
-6.14588
-6.16159
-6.17771
-6.19423
-6.21114
-6.22843
-6.24609
-6.26412
-6.2825
-6.30122
-6.32028
-6.33965
-6.35933
-6.37931
-6.39957
-6.42011
-6.4409
-6.46194
-6.48322
-6.50473
-6.52646
-6.54839
-6.57052
-6.59285
-6.61537
-6.63807
-6.66097
-6.68405
-6.70734
-6.73084
-6.75457
-6.77856
-6.80285
-6.82748
-6.85251
-6.87799
-6.90399
-6.9306
-6.95791
-6.98605
-7.01512
-7.0453
-7.07674
-7.10965
-7.14422
-7.1807
-7.21935
-7.26044
-7.30426
-7.35115
-7.40143
-7.45546
-7.51361
-7.57625
-7.64377
-7.71654
-7.79494
-7.87933
-7.97001
-8.06721
-8.1711
-8.28172
-8.39898
-8.52259
-8.65211
-8.7868
-8.92567
-9.06741
-9.21035
-9.35241
-9.49108
-9.62336
-9.7457
-9.8541
-9.94398
-10.0101
-10.0463
-10.0462
-10.0038
-9.91296
-9.7651
-9.54886
-9.25527
-8.87843
-8.41286
-7.85372
-7.19707
-6.44018
-5.58189
-4.6228
-3.56558
-2.41589
-1.18286
0.12171
1.48361
2.88471
4.30504
5.72276
7.11077
8.44334
9.70708
10.9029
12.0264
13.0607
13.9948
14.825
15.5496
16.1694
16.6889
17.1155
17.4583
17.7274
17.933
18.0844
18.1903
18.2583
18.2953
18.3071
18.2989
18.2752
18.2396
18.1954
18.145
18.0907
18.0342
17.9769
17.92
17.8645
17.8113
17.761
17.7146
17.6728
17.6367
17.6071
17.5854
17.5733
17.5694
17.5793
17.5621
-5.87728
-5.88054
-5.88463
-5.88774
-5.88999
-5.8918
-5.89335
-5.89475
-5.89608
-5.89741
-5.89881
-5.90034
-5.90206
-5.90401
-5.90624
-5.90879
-5.91171
-5.91502
-5.91876
-5.92296
-5.92763
-5.93279
-5.93847
-5.94465
-5.95137
-5.95861
-5.96638
-5.97469
-5.98352
-5.99288
-6.00277
-6.01317
-6.02409
-6.03552
-6.04746
-6.05989
-6.07281
-6.08622
-6.10009
-6.11443
-6.12922
-6.14446
-6.16013
-6.17621
-6.19271
-6.20962
-6.22691
-6.24459
-6.26265
-6.28107
-6.29984
-6.31896
-6.33841
-6.35817
-6.37823
-6.39858
-6.41921
-6.44011
-6.46126
-6.48265
-6.50427
-6.52611
-6.54816
-6.57042
-6.59287
-6.61551
-6.63834
-6.66135
-6.68455
-6.70793
-6.7315
-6.7553
-6.77934
-6.80366
-6.82831
-6.85333
-6.87878
-6.90474
-6.93128
-6.95849
-6.9865
-7.01543
-7.04542
-7.07666
-7.10933
-7.14365
-7.17988
-7.21826
-7.25909
-7.30267
-7.34933
-7.39941
-7.45328
-7.51132
-7.57393
-7.64152
-7.71451
-7.79329
-7.87826
-7.96976
-8.06807
-8.17342
-8.28589
-8.40544
-8.53188
-8.66478
-8.80348
-8.94703
-9.09416
-9.24325
-9.39226
-9.53872
-9.67962
-9.81147
-9.93022
-10.0313
-10.1093
-10.1582
-10.1715
-10.1429
-10.0663
-9.93192
-9.72824
-9.44663
-9.08128
-8.62668
-8.07785
-7.43061
-6.682
-5.83066
-4.8769
-3.82274
-2.67355
-1.43866
-0.129837
1.23951
2.65039
4.08121
5.5097
6.90857
8.25707
9.54675
10.7699
11.9112
12.9571
13.8999
14.736
15.4644
16.0868
16.6081
17.036
17.3802
17.6512
17.8594
18.0143
18.1243
18.1969
18.2385
18.255
18.2513
18.2318
18.2001
18.1594
18.1122
18.0607
18.0068
17.9517
17.8967
17.8427
17.7907
17.7413
17.6953
17.6533
17.6162
17.5845
17.559
17.5405
17.5265
17.5211
17.4832
-5.87173
-5.87542
-5.88012
-5.88372
-5.88636
-5.88853
-5.89041
-5.89212
-5.89375
-5.89536
-5.89703
-5.89881
-5.90077
-5.90295
-5.90539
-5.90815
-5.91125
-5.91473
-5.91862
-5.92295
-5.92774
-5.933
-5.93875
-5.94501
-5.95178
-5.95906
-5.96686
-5.97518
-5.98403
-5.9934
-6.00328
-6.01368
-6.0246
-6.03602
-6.04794
-6.06036
-6.07328
-6.08667
-6.10054
-6.11488
-6.12968
-6.14492
-6.16061
-6.17673
-6.19326
-6.21022
-6.22757
-6.24533
-6.26347
-6.28199
-6.30088
-6.32012
-6.33969
-6.3596
-6.37981
-6.40031
-6.4211
-6.44216
-6.46347
-6.48504
-6.50683
-6.52885
-6.55108
-6.57352
-6.59615
-6.61897
-6.64197
-6.66514
-6.68849
-6.71201
-6.73571
-6.75961
-6.78374
-6.80813
-6.83283
-6.85789
-6.88335
-6.9093
-6.9358
-6.96296
-6.99089
-7.01972
-7.04959
-7.08069
-7.11321
-7.14739
-7.18346
-7.22172
-7.26244
-7.30594
-7.35255
-7.40264
-7.45658
-7.51477
-7.57764
-7.64561
-7.71912
-7.79861
-7.88449
-7.97714
-8.07689
-8.18402
-8.29867
-8.42086
-8.55042
-8.687
-8.82999
-8.97847
-9.13124
-9.2867
-9.44286
-9.59727
-9.74696
-9.88844
-10.0177
-10.1301
-10.2202
-10.282
-10.3087
-10.2942
-10.2319
-10.1106
-9.91885
-9.64892
-9.29504
-8.85152
-8.31323
-7.67571
-6.93572
-6.0917
-5.14365
-4.09269
-2.94372
-1.70635
-0.392435
0.985878
2.40845
3.85226
5.29744
6.71838
8.09755
9.42102
10.6718
11.8348
12.8979
13.8533
14.6976
15.4302
16.0539
16.5743
16.9999
17.3411
17.6091
17.8152
17.9691
18.0793
18.1531
18.1966
18.2153
18.2139
18.1968
18.1675
18.129
18.0839
18.0344
17.9821
17.9286
17.8749
17.822
17.7707
17.7217
17.6757
17.6331
17.5945
17.5604
17.5308
17.506
17.4826
17.464
17.4095
-5.86779
-5.87169
-5.8767
-5.88058
-5.88348
-5.88587
-5.88798
-5.88991
-5.89175
-5.89357
-5.89545
-5.89745
-5.89963
-5.90202
-5.90468
-5.90765
-5.91095
-5.91462
-5.9187
-5.92319
-5.92813
-5.93353
-5.93941
-5.94577
-5.95263
-5.95999
-5.96786
-5.97625
-5.98515
-5.99456
-6.00448
-6.01492
-6.02586
-6.03731
-6.04927
-6.06172
-6.07466
-6.08809
-6.10199
-6.11637
-6.13121
-6.14651
-6.16226
-6.17844
-6.19506
-6.2121
-6.22957
-6.24744
-6.26571
-6.28437
-6.30342
-6.32282
-6.34257
-6.36266
-6.38306
-6.40377
-6.42476
-6.44602
-6.46755
-6.48933
-6.51134
-6.53357
-6.55602
-6.57867
-6.60152
-6.62454
-6.64774
-6.67111
-6.69463
-6.71831
-6.74215
-6.76618
-6.79042
-6.81491
-6.83968
-6.86478
-6.89027
-6.91622
-6.94271
-6.96984
-6.99772
-7.02649
-7.05629
-7.08731
-7.11976
-7.15387
-7.18992
-7.22816
-7.26892
-7.3125
-7.35926
-7.40957
-7.46383
-7.52245
-7.58587
-7.65454
-7.72892
-7.80946
-7.8966
-7.99076
-8.09231
-8.20157
-8.31874
-8.44386
-8.57681
-8.71726
-8.86464
-9.01811
-9.17649
-9.33823
-9.50137
-9.6635
-9.82169
-9.97245
-10.1118
-10.2351
-10.3369
-10.4109
-10.4507
-10.4501
-10.4016
-10.2923
-10.1113
-9.85262
-9.51012
-9.07785
-8.55049
-7.92333
-7.19279
-6.35713
-5.41599
-4.36929
-3.22159
-1.98315
-0.66606
0.719369
2.15268
3.60985
5.07534
6.52661
7.93918
9.29742
10.5822
11.7763
12.8658
13.8416
14.6994
15.4394
16.065
16.5833
17.0037
17.338
17.5988
17.7982
17.9469
18.0535
18.1251
18.1676
18.1861
18.1852
18.1688
18.1405
18.1031
18.0592
18.0107
17.9596
17.9069
17.854
17.8018
17.7509
17.7019
17.6555
17.612
17.5717
17.5349
17.5013
17.4704
17.4385
17.4087
17.3408
-5.86551
-5.86939
-5.87443
-5.87839
-5.88137
-5.88386
-5.88607
-5.88811
-5.89007
-5.89202
-5.89405
-5.8962
-5.89854
-5.90112
-5.90397
-5.90713
-5.91062
-5.91449
-5.91874
-5.92341
-5.92852
-5.93407
-5.94008
-5.94657
-5.95354
-5.961
-5.96897
-5.97743
-5.9864
-5.99588
-6.00587
-6.01636
-6.02737
-6.03887
-6.05088
-6.06338
-6.07638
-6.08987
-6.10384
-6.11829
-6.13321
-6.14859
-6.16442
-6.18071
-6.19744
-6.21461
-6.23221
-6.25023
-6.26867
-6.28751
-6.30674
-6.32635
-6.34631
-6.36661
-6.38724
-6.40817
-6.4294
-6.4509
-6.47267
-6.49469
-6.51694
-6.53942
-6.5621
-6.58499
-6.60806
-6.6313
-6.65471
-6.67827
-6.70197
-6.72581
-6.74981
-6.77397
-6.79832
-6.82289
-6.84773
-6.87287
-6.89839
-6.92434
-6.95081
-6.97791
-7.00575
-7.03446
-7.06422
-7.0952
-7.12762
-7.16175
-7.19783
-7.23617
-7.27708
-7.32088
-7.36796
-7.41869
-7.47349
-7.5328
-7.59706
-7.66674
-7.74232
-7.82426
-7.91301
-8.00902
-8.11273
-8.22446
-8.34443
-8.47271
-8.60918
-8.75355
-8.90529
-9.0636
-9.22733
-9.39499
-9.56463
-9.7339
-9.89989
-10.0591
-10.2077
-10.3409
-10.4533
-10.5385
-10.5901
-10.6023
-10.5663
-10.4673
-10.2958
-10.0476
-9.71585
-9.29438
-8.77771
-8.16086
-7.43998
-6.61305
-5.6795
-4.63807
-3.49329
-2.25635
-0.939973
0.44688
1.88821
3.35923
4.84124
6.31544
7.75843
9.15159
10.4746
11.708
12.8348
13.8425
14.7242
15.4789
16.1107
16.628
17.0422
17.3669
17.6168
17.8056
17.945
18.0444
18.1108
18.1497
18.1659
18.1636
18.1465
18.1179
18.0806
18.037
17.989
17.9383
17.8861
17.8336
17.7816
17.7308
17.6816
17.6346
17.59
17.5479
17.5084
17.4707
17.4343
17.3948
17.3554
17.2769
-5.86476
-5.8684
-5.87321
-5.87705
-5.87996
-5.88241
-5.8846
-5.88665
-5.88863
-5.89063
-5.89273
-5.89498
-5.89744
-5.90015
-5.90315
-5.90646
-5.91012
-5.91415
-5.91857
-5.92339
-5.92864
-5.93434
-5.94048
-5.94709
-5.95418
-5.96175
-5.96981
-5.97836
-5.98742
-5.99697
-6.00704
-6.0176
-6.02867
-6.04025
-6.05233
-6.0649
-6.07798
-6.09154
-6.1056
-6.12014
-6.13515
-6.15064
-6.1666
-6.18301
-6.19988
-6.21721
-6.23497
-6.25317
-6.2718
-6.29085
-6.31029
-6.33012
-6.35032
-6.37086
-6.39174
-6.41293
-6.43441
-6.45617
-6.4782
-6.50047
-6.52298
-6.54571
-6.56864
-6.59176
-6.61506
-6.63852
-6.66212
-6.68586
-6.70973
-6.73372
-6.75784
-6.78211
-6.80655
-6.83119
-6.85606
-6.88122
-6.90672
-6.93263
-6.95906
-6.9861
-7.01387
-7.04252
-7.07221
-7.10315
-7.13557
-7.16973
-7.2059
-7.24439
-7.28553
-7.32966
-7.37719
-7.4285
-7.48403
-7.54424
-7.60958
-7.68055
-7.75761
-7.84125
-7.93193
-8.03015
-8.13632
-8.25078
-8.37374
-8.50527
-8.64529
-8.79353
-8.94947
-9.11234
-9.28103
-9.45405
-9.62953
-9.8051
-9.97792
-10.1445
-10.301
-10.4427
-10.5641
-10.6587
-10.7206
-10.7439
-10.718
-10.6272
-10.4637
-10.2245
-9.90219
-9.49027
-8.98321
-8.37582
-7.66401
-6.84572
-5.92075
-4.88794
-3.74967
-2.51629
-1.20077
0.185263
1.62826
3.10667
4.60047
6.09044
7.55543
8.97627
10.3332
11.6062
12.7764
13.8271
14.7462
15.5284
16.176
16.6979
17.1078
17.4223
17.6588
17.8337
17.9606
18.0496
18.108
18.141
18.1529
18.1476
18.1285
18.0986
18.0605
18.0165
17.9684
17.9177
17.8657
17.8133
17.7613
17.7103
17.6607
17.613
17.5672
17.5232
17.4809
17.4395
17.3979
17.3517
17.3043
17.2171
-5.86523
-5.86846
-5.8728
-5.87634
-5.87904
-5.88134
-5.88342
-5.88538
-5.88731
-5.8893
-5.89141
-5.8937
-5.89623
-5.89902
-5.90212
-5.90554
-5.90932
-5.91347
-5.91801
-5.92296
-5.92833
-5.93414
-5.9404
-5.94711
-5.9543
-5.96196
-5.97011
-5.97875
-5.98789
-5.99753
-6.00766
-6.01831
-6.02945
-6.04111
-6.05326
-6.06592
-6.07909
-6.09275
-6.1069
-6.12155
-6.13668
-6.1523
-6.16839
-6.18496
-6.20199
-6.21949
-6.23745
-6.25585
-6.2747
-6.29397
-6.31365
-6.33373
-6.35418
-6.37498
-6.39612
-6.41758
-6.43933
-6.46136
-6.48366
-6.50619
-6.52896
-6.55193
-6.57509
-6.59844
-6.62194
-6.64558
-6.66936
-6.69325
-6.71724
-6.74134
-6.76555
-6.78988
-6.81436
-6.839
-6.86385
-6.88895
-6.91437
-6.94019
-6.96649
-6.9934
-7.02104
-7.04957
-7.07915
-7.11002
-7.1424
-7.17658
-7.21283
-7.25149
-7.29289
-7.33742
-7.38548
-7.4375
-7.49389
-7.55515
-7.62177
-7.69422
-7.77301
-7.8586
-7.95149
-8.05216
-8.16101
-8.27836
-8.40441
-8.53925
-8.68281
-8.8348
-8.99474
-9.16183
-9.335
-9.51276
-9.69327
-9.8742
-10.0527
-10.2253
-10.3882
-10.5366
-10.6651
-10.7671
-10.8372
-10.8694
-10.8505
-10.7651
-10.6081
-10.3767
-10.0633
-9.66082
-9.16327
-8.56542
-7.8629
-7.05317
-6.13584
-5.11148
-3.98151
-2.75385
-1.44063
-0.0548331
1.38875
2.87054
4.37058
5.86921
7.34642
8.78357
10.1625
11.4654
12.6741
13.7703
14.737
15.5615
16.2394
16.777
17.1893
17.4961
17.7191
17.8783
17.9902
18.0663
18.1143
18.1393
18.1454
18.1358
18.1136
18.0815
18.042
17.997
17.9484
17.8973
17.8451
17.7926
17.7404
17.6892
17.6391
17.5906
17.5435
17.4977
17.4528
17.4079
17.3616
17.3096
17.2554
17.1613
-5.86657
-5.86926
-5.87295
-5.87602
-5.87841
-5.88046
-5.88234
-5.88415
-5.88598
-5.8879
-5.88998
-5.89227
-5.89481
-5.89764
-5.90078
-5.90427
-5.90812
-5.91234
-5.91696
-5.92199
-5.92744
-5.93333
-5.93967
-5.94647
-5.95373
-5.96147
-5.96969
-5.97841
-5.98762
-5.99732
-6.00754
-6.01825
-6.02948
-6.04121
-6.05345
-6.0662
-6.07946
-6.09322
-6.10749
-6.12226
-6.13753
-6.15329
-6.16954
-6.18628
-6.2035
-6.22119
-6.23936
-6.25799
-6.27707
-6.29659
-6.31652
-6.33686
-6.35758
-6.37865
-6.40007
-6.42179
-6.44382
-6.46611
-6.48866
-6.51145
-6.53445
-6.55764
-6.58101
-6.60453
-6.62819
-6.65198
-6.67586
-6.69983
-6.72389
-6.74802
-6.77224
-6.79655
-6.82098
-6.84553
-6.87025
-6.89519
-6.92043
-6.94604
-6.97212
-6.99879
-7.0262
-7.0545
-7.08389
-7.11459
-7.14687
-7.181
-7.21729
-7.25608
-7.29774
-7.34267
-7.39131
-7.44404
-7.50135
-7.56376
-7.63175
-7.70584
-7.7865
-7.87423
-7.96951
-8.07281
-8.18449
-8.30486
-8.43412
-8.57234
-8.71944
-8.87512
-9.03889
-9.20995
-9.38721
-9.56922
-9.75412
-9.93958
-10.1228
-10.3003
-10.4683
-10.622
-10.7559
-10.8638
-10.9408
-10.98
-10.9649
-10.8829
-10.7315
-10.5064
-10.2008
-9.8069
-9.3182
-8.72927
-8.03552
-7.23389
-6.32336
-5.30475
-4.18055
-2.95782
-1.64758
-0.263089
1.18001
2.66279
4.16528
5.66746
7.14961
8.59341
9.98204
11.3001
12.5328
13.6645
14.6772
15.5523
16.2756
16.8447
17.2712
17.5775
17.7901
17.9341
18.0298
18.0913
18.1273
18.1429
18.1418
18.1268
18.1007
18.0658
18.0243
17.9779
17.9284
17.8768
17.8242
17.7714
17.7189
17.6673
17.6167
17.5673
17.519
17.4714
17.4242
17.376
17.3256
17.2686
17.2086
17.1091
-5.86839
-5.87046
-5.87336
-5.87587
-5.87786
-5.8796
-5.88123
-5.88285
-5.88453
-5.88635
-5.88835
-5.89059
-5.89311
-5.89593
-5.89907
-5.90257
-5.90643
-5.91068
-5.91533
-5.92039
-5.92589
-5.93182
-5.9382
-5.94505
-5.95236
-5.96015
-5.96843
-5.9772
-5.98647
-5.99624
-6.00652
-6.01731
-6.02861
-6.04042
-6.05275
-6.06559
-6.07895
-6.09283
-6.10721
-6.12212
-6.13753
-6.15345
-6.16987
-6.1868
-6.20422
-6.22213
-6.24052
-6.25939
-6.27872
-6.29849
-6.31869
-6.33929
-6.36027
-6.38162
-6.40329
-6.42527
-6.44755
-6.47008
-6.49286
-6.51585
-6.53903
-6.56239
-6.58589
-6.60953
-6.63326
-6.65709
-6.68099
-6.70494
-6.72894
-6.75298
-6.77708
-6.80124
-6.82548
-6.84979
-6.87423
-6.89887
-6.92376
-6.949
-6.97469
-7.00096
-7.02797
-7.05588
-7.08491
-7.11531
-7.14733
-7.18127
-7.21747
-7.25628
-7.29809
-7.34333
-7.39244
-7.44588
-7.50414
-7.56773
-7.63718
-7.71298
-7.79563
-7.88563
-7.98346
-8.08954
-8.20423
-8.3278
-8.46043
-8.60218
-8.75293
-8.91237
-9.07997
-9.25494
-9.43616
-9.62217
-9.8111
-10.0006
-10.1879
-10.3696
-10.5418
-10.6997
-10.8378
-10.9507
-11.0337
-11.0774
-11.0633
-10.9831
-10.8361
-10.6161
-10.3158
-9.92797
-9.44577
-8.86348
-8.17632
-7.38093
-6.47591
-5.46198
-4.34216
-3.12337
-1.8161
-0.433682
1.00782
2.4896
3.99161
5.49359
6.97577
8.41984
9.80956
11.131
12.3724
13.5224
14.5673
15.4882
16.2637
16.8789
17.3355
17.6532
17.8624
17.9943
18.0748
18.1214
18.1444
18.1496
18.1404
18.1193
18.0887
18.0504
18.0066
17.9586
17.908
17.8557
17.8026
17.7494
17.6966
17.6446
17.5935
17.5433
17.4939
17.4447
17.3952
17.3442
17.2901
17.2288
17.1639
17.0601
-5.87034
-5.87176
-5.87383
-5.8757
-5.87725
-5.87864
-5.87999
-5.88138
-5.88288
-5.88455
-5.88644
-5.88859
-5.89104
-5.8938
-5.89689
-5.90035
-5.90419
-5.90841
-5.91305
-5.9181
-5.92359
-5.92953
-5.93592
-5.94278
-5.95012
-5.95795
-5.96626
-5.97508
-5.98439
-5.99421
-6.00455
-6.0154
-6.02677
-6.03866
-6.05107
-6.06401
-6.07747
-6.09146
-6.10598
-6.12102
-6.13658
-6.15267
-6.16928
-6.18639
-6.20402
-6.22215
-6.24078
-6.25988
-6.27946
-6.29948
-6.31992
-6.34077
-6.362
-6.38358
-6.40548
-6.42767
-6.45014
-6.47285
-6.49577
-6.51889
-6.54217
-6.56558
-6.58911
-6.61272
-6.6364
-6.66012
-6.68387
-6.70764
-6.7314
-6.75517
-6.77894
-6.80272
-6.82653
-6.85039
-6.87433
-6.89842
-6.92274
-6.94736
-6.97242
-6.99805
-7.02442
-7.05171
-7.08015
-7.11
-7.14155
-7.17511
-7.21103
-7.24969
-7.29152
-7.33696
-7.38648
-7.44059
-7.49978
-7.56459
-7.63552
-7.71311
-7.79786
-7.89027
-7.9908
-8.09985
-8.21773
-8.34471
-8.48091
-8.62637
-8.78093
-8.94427
-9.11581
-9.29474
-9.47991
-9.66982
-9.86258
-10.0558
-10.2468
-10.432
-10.6077
-10.7688
-10.9102
-11.0273
-11.1147
-11.1586
-11.143
-11.0636
-10.9191
-10.7022
-10.4054
-10.0214
-9.54334
-8.96529
-8.28232
-7.49097
-6.58963
-5.57899
-4.46235
-3.24665
-1.9423
-0.562737
0.87572
2.35427
3.8528
5.35094
6.82894
8.26854
9.65376
10.9714
12.2111
13.3648
14.4239
15.375
16.1965
16.864
17.3648
17.7086
17.9253
18.0516
18.1199
18.1526
18.1629
18.1574
18.1397
18.1121
18.0765
18.0348
17.9883
17.9386
17.8867
17.8336
17.78
17.7265
17.6734
17.6211
17.5695
17.5186
17.4681
17.4174
17.366
17.3125
17.2553
17.1903
17.1212
17.0142
-5.87212
-5.87296
-5.87423
-5.87547
-5.87655
-5.87756
-5.8786
-5.87972
-5.88101
-5.88249
-5.88422
-5.88623
-5.88854
-5.89118
-5.89417
-5.89753
-5.90127
-5.90542
-5.90999
-5.91499
-5.92044
-5.92635
-5.93272
-5.93958
-5.94692
-5.95476
-5.96309
-5.97194
-5.98129
-5.99115
-6.00154
-6.01245
-6.02388
-6.03584
-6.04833
-6.06136
-6.07492
-6.08902
-6.10366
-6.11883
-6.13455
-6.1508
-6.16757
-6.18488
-6.2027
-6.22104
-6.23987
-6.25918
-6.27897
-6.29919
-6.31984
-6.34088
-6.36228
-6.38402
-6.40605
-6.42835
-6.45089
-6.47364
-6.49657
-6.51965
-6.54284
-6.56613
-6.58948
-6.61286
-6.63626
-6.65965
-6.68302
-6.70634
-6.72961
-6.75283
-6.776
-6.79912
-6.82222
-6.84532
-6.86847
-6.89172
-6.91516
-6.93889
-6.96302
-6.98772
-7.01317
-7.03956
-7.06715
-7.09621
-7.12705
-7.16001
-7.19547
-7.23384
-7.27556
-7.32111
-7.37099
-7.42572
-7.48583
-7.55186
-7.62434
-7.70381
-7.79077
-7.88572
-7.98912
-8.10132
-8.2226
-8.35318
-8.49316
-8.64252
-8.80107
-8.96845
-9.14406
-9.32701
-9.51612
-9.70985