/*--------------------------------*- C++ -*----------------------------------*\
| =========                 |                                                 |
| \\      /  F ield         | OpenFOAM: The Open Source CFD Toolbox           |
|  \\    /   O peration     | Version:  1.4.2                                 |
|   \\  /    A nd           | Web:      http://www.openfoam.org               |
|    \\/     M anipulation  |                                                 |
\*---------------------------------------------------------------------------*/
FoamFile
{
    version     2.0;
    format      ascii;
    class       surfaceScalarField;
    object      phi;
    location    "550";
}
// * * * * * * * * * * * * * * * * * * * * * * * * * * * * * * * * * * * * * //

dimensions      [0 3 -1 0 0 0 0];

internalField   nonuniform List<scalar> 
24170
(
3.03918e-06
9.47146e-08
2.96658e-06
7.25997e-08
2.90195e-06
6.46299e-08
2.8407e-06
6.12463e-08
2.78292e-06
5.77843e-08
2.72883e-06
5.40874e-08
2.67835e-06
5.04714e-08
2.63135e-06
4.70096e-08
2.58765e-06
4.36938e-08
2.54713e-06
4.05233e-08
2.50965e-06
3.74877e-08
2.47507e-06
3.45755e-08
2.4433e-06
3.17729e-08
2.41427e-06
2.90343e-08
2.38798e-06
2.62835e-08
2.36463e-06
2.33505e-08
2.34475e-06
1.98902e-08
9.84102e-09
2.3349e-06
3.46199e-06
8.91677e-08
3.45385e-06
8.07362e-08
3.44439e-06
7.40857e-08
3.43375e-06
7.18866e-08
3.42218e-06
6.93531e-08
3.41008e-06
6.61868e-08
3.39768e-06
6.28745e-08
3.38512e-06
5.95749e-08
3.37252e-06
5.62977e-08
3.35999e-06
5.30504e-08
3.34765e-06
4.98342e-08
3.33559e-06
4.66339e-08
3.32394e-06
4.34214e-08
3.31286e-06
4.01257e-08
3.30254e-06
3.65983e-08
3.29337e-06
3.25228e-08
3.28618e-06
2.70808e-08
1.76389e-08
3.27838e-06
3.82432e-06
7.70367e-08
3.82629e-06
7.87683e-08
3.82558e-06
7.47955e-08
3.82401e-06
7.34513e-08
3.82182e-06
7.15474e-08
3.81917e-06
6.88381e-08
3.81621e-06
6.58323e-08
3.81305e-06
6.27419e-08
3.80974e-06
5.96062e-08
3.80635e-06
5.6442e-08
3.80293e-06
5.32556e-08
3.79954e-06
5.00275e-08
3.79624e-06
4.67164e-08
3.79314e-06
4.32348e-08
3.79033e-06
3.94101e-08
3.78792e-06
3.49254e-08
3.78581e-06
2.91966e-08
2.11826e-08
3.78227e-06
4.21689e-06
6.47016e-08
4.22211e-06
7.35532e-08
4.22427e-06
7.26286e-08
4.22551e-06
7.22094e-08
4.22621e-06
7.08535e-08
4.22649e-06
6.85569e-08
4.22649e-06
6.58282e-08
4.22632e-06
6.29138e-08
4.22604e-06
5.98872e-08
4.22571e-06
5.67801e-08
4.22536e-06
5.36058e-08
4.22504e-06
5.03471e-08
4.2248e-06
4.6959e-08
4.22468e-06
4.3355e-08
4.22471e-06
3.93785e-08
4.22485e-06
3.4784e-08
4.2248e-06
2.92471e-08
2.2479e-08
4.22351e-06
4.64869e-06
5.33167e-08
4.65543e-06
6.68138e-08
4.65929e-06
6.87712e-08
4.66207e-06
6.94272e-08
4.66425e-06
6.86756e-08
4.66599e-06
6.68111e-08
4.66744e-06
6.43779e-08
4.6687e-06
6.16563e-08
4.66984e-06
5.8753e-08
4.6709e-06
5.57175e-08
4.67193e-06
5.25722e-08
4.67298e-06
4.93066e-08
4.67405e-06
4.58814e-08
4.67519e-06
4.22231e-08
4.67636e-06
3.82112e-08
4.67745e-06
3.36866e-08
4.67819e-06
2.85145e-08
2.27436e-08
4.67792e-06
5.12455e-06
4.33614e-08
5.13198e-06
5.93807e-08
5.13704e-06
6.37098e-08
5.14103e-06
6.54438e-08
5.14432e-06
6.5379e-08
5.14712e-06
6.40143e-08
5.14957e-06
6.19272e-08
5.15179e-06
5.94373e-08
5.15385e-06
5.66896e-08
5.15582e-06
5.37568e-08
5.15771e-06
5.06739e-08
5.15958e-06
4.74417e-08
5.16143e-06
4.40326e-08
5.16326e-06
4.0394e-08
5.16502e-06
3.64481e-08
5.1666e-06
3.21122e-08
5.16774e-06
2.73688e-08
2.23922e-08
5.1681e-06
5.64938e-06
3.49871e-08
5.65695e-06
5.18092e-08
5.6628e-06
5.78567e-08
5.66773e-06
6.05214e-08
5.67197e-06
6.11309e-08
5.67569e-06
6.02976e-08
5.67901e-06
5.86051e-08
5.68205e-06
5.63997e-08
5.68488e-06
5.38569e-08
5.68757e-06
5.10721e-08
5.69015e-06
4.80967e-08
5.69264e-06
4.49468e-08
5.69507e-06
4.16123e-08
5.69739e-06
3.8066e-08
5.69957e-06
3.42711e-08
5.70148e-06
3.02038e-08
5.70294e-06
2.59098e-08
2.1587e-08
5.70375e-06
4.4112e-06
2.98984e-08
4.4165e-06
4.65117e-08
4.421e-06
5.33504e-08
4.42494e-06
5.6587e-08
4.42844e-06
5.76254e-08
4.43159e-06
5.71516e-08
4.43445e-06
5.57469e-08
4.43708e-06
5.37635e-08
4.43955e-06
5.1392e-08
4.44188e-06
4.87412e-08
4.4441e-06
4.58733e-08
4.44624e-06
4.28159e-08
4.44828e-06
3.95727e-08
4.45021e-06
3.61348e-08
4.45199e-06
3.24912e-08
4.45354e-06
2.86495e-08
4.45477e-06
2.46787e-08
2.07657e-08
4.4556e-06
5.14459e-06
2.51633e-08
5.15006e-06
4.10411e-08
5.15504e-06
4.83673e-08
5.15959e-06
5.20461e-08
5.16374e-06
5.34726e-08
5.16754e-06
5.33507e-08
5.17104e-06
5.2244e-08
5.1743e-06
5.0504e-08
5.17736e-06
4.83315e-08
5.18026e-06
4.58463e-08
5.18301e-06
4.31209e-08
5.18563e-06
4.01948e-08
5.18812e-06
3.70859e-08
5.19045e-06
3.38036e-08
5.19258e-06
3.03597e-08
5.19445e-06
2.67853e-08
5.19597e-06
2.31598e-08
1.96515e-08
5.19708e-06
6.0001e-06
2.08587e-08
6.00561e-06
3.55305e-08
6.01096e-06
4.30168e-08
6.01604e-06
4.69643e-08
6.02081e-06
4.86971e-08
6.02527e-06
4.88914e-08
6.02944e-06
4.80732e-08
6.03336e-06
4.65846e-08
6.03706e-06
4.46308e-08
6.04057e-06
4.23392e-08
6.0439e-06
3.97912e-08
6.04706e-06
3.70371e-08
6.05004e-06
3.4109e-08
6.05281e-06
3.10322e-08
6.05533e-06
2.78363e-08
6.05755e-06
2.45674e-08
6.05941e-06
2.13051e-08
1.81939e-08
6.06087e-06
6.9981e-06
1.70216e-08
7.00352e-06
3.01079e-08
7.00913e-06
3.74118e-08
7.01466e-06
4.14343e-08
7.02e-06
4.33584e-08
7.02508e-06
4.38047e-08
7.02991e-06
4.32446e-08
7.0345e-06
4.20002e-08
7.03885e-06
4.02745e-08
7.043e-06
3.81983e-08
7.04693e-06
3.58592e-08
7.05065e-06
3.3317e-08
7.05414e-06
3.06152e-08
7.05739e-06
2.77916e-08
7.06033e-06
2.48876e-08
7.06295e-06
2.19561e-08
7.06518e-06
1.907e-08
1.63478e-08
7.06703e-06
8.1624e-06
1.36384e-08
8.16763e-06
2.48773e-08
8.17337e-06
3.1664e-08
8.17925e-06
3.55575e-08
8.18507e-06
3.75369e-08
8.19073e-06
3.81481e-08
8.19617e-06
3.77975e-08
8.2014e-06
3.67762e-08
8.2064e-06
3.52776e-08
8.21116e-06
3.34312e-08
8.2157e-06
3.13276e-08
8.21998e-06
2.90325e-08
8.224e-06
2.65975e-08
8.22772e-06
2.40684e-08
8.23112e-06
2.14921e-08
8.23416e-06
1.89212e-08
8.23681e-06
1.64186e-08
1.40777e-08
8.23908e-06
9.52071e-06
1.06556e-08
9.52568e-06
1.99015e-08
9.53148e-06
2.58683e-08
9.53761e-06
2.94262e-08
9.54383e-06
3.13147e-08
9.54999e-06
3.19897e-08
9.556e-06
3.17871e-08
9.56182e-06
3.09577e-08
9.56742e-06
2.96772e-08
9.57278e-06
2.80687e-08
9.57789e-06
2.62211e-08
9.58272e-06
2.42023e-08
9.58725e-06
2.20673e-08
9.59146e-06
1.98646e-08
9.59531e-06
1.76412e-08
9.59878e-06
1.54451e-08
9.60188e-06
1.33273e-08
1.13594e-08
9.60459e-06
1.11054e-05
7.99498e-09
1.11101e-05
1.51922e-08
1.11159e-05
2.00876e-08
1.11222e-05
2.31079e-08
1.11287e-05
2.47572e-08
1.11353e-05
2.53884e-08
1.11419e-05
2.52649e-08
1.11482e-05
2.45899e-08
1.11544e-05
2.3514e-08
1.11603e-05
2.21468e-08
1.1166e-05
2.0571e-08
1.11713e-05
1.88514e-08
1.11763e-05
1.70414e-08
1.1181e-05
1.51878e-08
1.11853e-05
1.33331e-08
1.11892e-05
1.15178e-08
1.11928e-05
9.78165e-09
8.1783e-09
1.1196e-05
1.29541e-05
5.56635e-09
1.29585e-05
1.07056e-08
1.29643e-05
1.43346e-08
1.29708e-05
1.663e-08
1.29776e-05
1.78952e-08
1.29846e-05
1.8375e-08
1.29917e-05
1.82588e-08
1.29985e-05
1.7698e-08
1.30052e-05
1.68099e-08
1.30117e-05
1.56848e-08
1.30179e-05
1.43925e-08
1.30238e-05
1.29896e-08
1.30293e-05
1.15232e-08
1.30344e-05
1.00336e-08
1.30392e-05
8.55648e-09
1.30436e-05
7.12367e-09
1.30476e-05
5.76454e-09
4.51871e-09
1.30513e-05
1.51107e-05
3.26897e-09
1.51151e-05
6.33811e-09
1.51209e-05
8.54916e-09
1.51276e-05
9.9538e-09
1.51348e-05
1.07007e-08
1.51422e-05
1.09283e-08
1.51497e-05
1.07512e-08
1.51572e-05
1.02649e-08
1.51644e-05
9.54801e-09
1.51714e-05
8.66389e-09
1.51782e-05
7.66417e-09
1.51846e-05
6.59166e-09
1.51906e-05
5.48258e-09
1.51963e-05
4.3679e-09
1.52016e-05
3.27421e-09
1.52065e-05
2.22446e-09
1.5211e-05
1.2392e-09
3.47096e-10
1.52152e-05
1.76267e-05
9.76792e-10
1.76312e-05
1.90031e-09
1.76372e-05
2.55358e-09
1.76442e-05
2.92507e-09
1.76519e-05
3.03981e-09
1.76599e-05
2.93283e-09
1.7668e-05
2.64085e-09
1.7676e-05
2.19998e-09
1.76839e-05
1.64406e-09
1.76916e-05
1.00387e-09
1.7699e-05
3.07162e-10
1.7706e-05
-4.21288e-10
1.77126e-05
-1.15954e-09
1.77189e-05
-1.88839e-09
1.77247e-05
-2.59132e-09
1.77302e-05
-3.25422e-09
1.77353e-05
-3.86419e-09
-4.40133e-09
1.77401e-05
1.78284e-05
-1.20538e-09
1.78326e-05
-2.34069e-09
1.78384e-05
-3.19208e-09
1.78451e-05
-3.82366e-09
1.78525e-05
-4.32497e-09
1.78602e-05
-4.75977e-09
1.7868e-05
-5.16625e-09
1.78757e-05
-5.566e-09
1.78834e-05
-5.96927e-09
1.78907e-05
-6.37802e-09
1.78978e-05
-6.78883e-09
1.79046e-05
-7.19527e-09
1.7911e-05
-7.58956e-09
1.79171e-05
-7.96373e-09
1.79228e-05
-8.3103e-09
1.79282e-05
-8.62246e-09
1.79332e-05
-8.89319e-09
-9.1091e-09
1.79379e-05
1.58834e-05
-3.26527e-09
1.58873e-05
-6.28389e-09
1.58926e-05
-8.44662e-09
1.58987e-05
-9.91045e-09
1.59053e-05
-1.08992e-08
1.59121e-05
-1.15736e-08
1.59189e-05
-1.20402e-08
1.59257e-05
-1.23724e-08
1.59324e-05
-1.26191e-08
1.59388e-05
-1.28103e-08
1.5945e-05
-1.29629e-08
1.59509e-05
-1.30857e-08
1.59565e-05
-1.31824e-08
1.59618e-05
-1.32537e-08
1.59668e-05
-1.32992e-08
1.59715e-05
-1.33172e-08
1.59759e-05
-1.33048e-08
-1.32532e-08
1.598e-05
1.41508e-05
-5.40909e-09
1.41548e-05
-1.02615e-08
1.41599e-05
-1.35664e-08
1.41657e-05
-1.5682e-08
1.41718e-05
-1.70131e-08
1.4178e-05
-1.78194e-08
1.41843e-05
-1.82708e-08
1.41904e-05
-1.84886e-08
1.41963e-05
-1.85554e-08
1.4202e-05
-1.85238e-08
1.42075e-05
-1.84268e-08
1.42127e-05
-1.82847e-08
1.42176e-05
-1.81098e-08
1.42223e-05
-1.79095e-08
1.42267e-05
-1.76881e-08
1.42308e-05
-1.74479e-08
1.42347e-05
-1.7189e-08
-1.6906e-08
1.42383e-05
1.26074e-05
-7.82779e-09
1.26117e-05
-1.45239e-08
1.26169e-05
-1.87716e-08
1.26226e-05
-2.13318e-08
1.26284e-05
-2.28451e-08
1.26342e-05
-2.36613e-08
1.264e-05
-2.40095e-08
1.26455e-05
-2.40549e-08
1.26509e-05
-2.39074e-08
1.2656e-05
-2.36369e-08
1.26609e-05
-2.32875e-08
1.26655e-05
-2.28876e-08
1.26698e-05
-2.24553e-08
1.26739e-05
-2.20021e-08
1.26778e-05
-2.15357e-08
1.26814e-05
-2.10611e-08
1.26848e-05
-2.05807e-08
-2.0092e-08
1.2688e-05
1.12327e-05
-1.07406e-08
1.12375e-05
-1.92739e-08
1.12429e-05
-2.418e-08
1.12485e-05
-2.69394e-08
1.12541e-05
-2.84572e-08
1.12596e-05
-2.91497e-08
1.12649e-05
-2.92987e-08
1.12699e-05
-2.9108e-08
1.12747e-05
-2.87077e-08
1.12793e-05
-2.8178e-08
1.12835e-05
-2.75695e-08
1.12876e-05
-2.69147e-08
1.12914e-05
-2.62345e-08
1.12949e-05
-2.55424e-08
1.12982e-05
-2.48478e-08
1.13013e-05
-2.41573e-08
1.13042e-05
-2.34751e-08
-2.28017e-08
1.13069e-05
1.00083e-05
-1.44193e-08
1.00137e-05
-2.46591e-08
1.00193e-05
-2.98029e-08
1.00248e-05
-3.24733e-08
1.00302e-05
-3.38024e-08
1.00353e-05
-3.423e-08
1.004e-05
-3.40836e-08
1.00445e-05
-3.35971e-08
1.00487e-05
-3.29104e-08
1.00527e-05
-3.21065e-08
1.00563e-05
-3.1237e-08
1.00598e-05
-3.03345e-08
1.00629e-05
-2.94196e-08
1.00659e-05
-2.85053e-08
1.00687e-05
-2.76008e-08
1.00712e-05
-2.67131e-08
1.00736e-05
-2.58481e-08
-2.50102e-08
1.00758e-05
8.91787e-06
-1.91892e-08
8.92394e-06
-3.07272e-08
8.92965e-06
-3.55182e-08
8.93496e-06
-3.77792e-08
8.93988e-06
-3.87231e-08
8.9444e-06
-3.87538e-08
8.94855e-06
-3.82331e-08
8.95236e-06
-3.74097e-08
8.95587e-06
-3.64206e-08
8.95911e-06
-3.53432e-08
8.9621e-06
-3.42245e-08
8.96486e-06
-3.30933e-08
8.96741e-06
-3.19669e-08
8.96976e-06
-3.08555e-08
8.97193e-06
-2.9766e-08
8.97392e-06
-2.87043e-08
8.97575e-06
-2.76773e-08
-2.66944e-08
8.97744e-06
7.94687e-06
-2.53911e-08
7.9535e-06
-3.73563e-08
7.95902e-06
-4.10395e-08
7.96381e-06
-4.2576e-08
7.96806e-06
-4.29679e-08
7.97181e-06
-4.25084e-08
7.97516e-06
-4.1573e-08
7.97815e-06
-4.04066e-08
7.98086e-06
-3.91293e-08
7.98332e-06
-3.78039e-08
7.98557e-06
-3.64675e-08
7.98762e-06
-3.51421e-08
7.98949e-06
-3.38393e-08
7.99121e-06
-3.25649e-08
7.99276e-06
-3.13217e-08
7.99417e-06
-3.01122e-08
7.99544e-06
-2.89431e-08
-2.78291e-08
7.99658e-06
7.08223e-06
-3.32943e-08
7.08904e-06
-4.4161e-08
7.09389e-06
-4.58976e-08
7.09779e-06
-4.64722e-08
7.10105e-06
-4.62279e-08
7.1038e-06
-4.52582e-08
7.10615e-06
-4.39259e-08
7.1082e-06
-4.24532e-08
7.11e-06
-4.09308e-08
7.1116e-06
-3.94011e-08
7.11303e-06
-3.78891e-08
7.11429e-06
-3.64092e-08
7.11542e-06
-3.49677e-08
7.11643e-06
-3.35657e-08
7.11731e-06
-3.22009e-08
7.11807e-06
-3.08696e-08
7.1187e-06
-2.95735e-08
-2.83263e-08
7.1192e-06
6.31218e-06
-4.29624e-08
6.31834e-06
-5.0321e-08
6.32187e-06
-4.94291e-08
6.3244e-06
-4.90041e-08
6.32633e-06
-4.81548e-08
6.32779e-06
-4.67202e-08
6.32891e-06
-4.50424e-08
6.32977e-06
-4.33122e-08
6.33043e-06
-4.15896e-08
6.33093e-06
-3.98978e-08
6.33129e-06
-3.82514e-08
6.33154e-06
-3.66578e-08
6.33169e-06
-3.51181e-08
6.33176e-06
-3.36286e-08
6.33174e-06
-3.21811e-08
6.33164e-06
-3.07624e-08
6.33142e-06
-2.93596e-08
-2.79609e-08
6.33106e-06
5.62586e-06
-5.39258e-08
5.6297e-06
-5.41595e-08
5.63087e-06
-5.06013e-08
5.63122e-06
-4.93477e-08
5.63099e-06
-4.79245e-08
5.63033e-06
-4.6065e-08
5.62939e-06
-4.40984e-08
5.62825e-06
-4.21701e-08
5.62696e-06
-4.03053e-08
5.62557e-06
-3.85083e-08
5.62411e-06
-3.6783e-08
5.62258e-06
-3.51299e-08
5.62101e-06
-3.35458e-08
5.61941e-06
-3.20233e-08
5.61778e-06
-3.05497e-08
5.61612e-06
-2.91004e-08
5.6144e-06
-2.76346e-08
-2.60304e-08
5.61247e-06
5.01054e-06
-6.21562e-08
5.00698e-06
-5.06032e-08
5.00195e-06
-4.55699e-08
4.99621e-06
-4.36099e-08
4.98994e-06
-4.16556e-08
4.9834e-06
-3.95273e-08
4.97675e-06
-3.74476e-08
4.97007e-06
-3.54848e-08
4.9634e-06
-3.36334e-08
4.95677e-06
-3.1883e-08
4.95022e-06
-3.02276e-08
4.94376e-06
-2.86615e-08
4.93739e-06
-2.71784e-08
4.93114e-06
-2.57701e-08
4.92502e-06
-2.44251e-08
4.91904e-06
-2.31179e-08
4.9132e-06
-2.179e-08
-2.00009e-08
4.90717e-06
4.39439e-06
4.34379e-06
4.29822e-06
4.25461e-06
4.21295e-06
4.17343e-06
4.13598e-06
4.10049e-06
4.06686e-06
4.03498e-06
4.00475e-06
3.97609e-06
3.94892e-06
3.92315e-06
3.89873e-06
3.87561e-06
3.85382e-06
3.83382e-06
9.2095e-09
-9.2097e-09
2.10539e-08
-1.18337e-08
3.22715e-08
-1.121e-08
4.13034e-08
-9.02741e-09
4.74199e-08
-6.11317e-09
5.03322e-08
-2.90916e-09
4.99564e-08
3.77752e-10
4.63809e-08
3.57713e-09
3.98034e-08
6.57943e-09
3.04783e-08
9.32664e-09
1.86189e-08
1.18602e-08
4.41035e-09
1.42089e-08
-1.19721e-08
1.63812e-08
-3.02982e-08
1.83231e-08
-5.03311e-08
2.00289e-08
-7.18663e-08
2.15307e-08
-9.47201e-08
2.28494e-08
-1.18722e-07
2.39974e-08
-1.43714e-07
2.49875e-08
-1.69553e-07
2.58335e-08
-1.96107e-07
2.65504e-08
-2.23264e-07
2.7153e-08
-2.50922e-07
2.76561e-08
-2.78998e-07
2.80733e-08
-3.07415e-07
2.8417e-08
-3.36113e-07
2.86985e-08
-3.65039e-07
2.89272e-08
-3.94147e-07
2.91111e-08
-4.234e-07
2.92567e-08
-4.52765e-07
2.93692e-08
-4.82212e-07
2.94522e-08
-5.11715e-07
2.95087e-08
-5.41252e-07
2.9542e-08
-5.70807e-07
2.95597e-08
-6.00385e-07
2.9582e-08
-6.30039e-07
2.96588e-08
-6.59951e-07
2.99146e-08
-6.90125e-07
3.01771e-08
-7.20438e-07
3.03157e-08
-7.50896e-07
3.04594e-08
-7.81521e-07
3.0626e-08
-8.12334e-07
3.08137e-08
-8.43355e-07
3.102e-08
-8.746e-07
3.12432e-08
-9.06084e-07
3.14824e-08
-9.37822e-07
3.17371e-08
-9.6983e-07
3.20072e-08
-1.00212e-06
3.22923e-08
-1.03471e-06
3.25923e-08
-1.06761e-06
3.29072e-08
-1.10084e-06
3.32368e-08
-1.13442e-06
3.35809e-08
-1.16835e-06
3.39392e-08
-1.20266e-06
3.43116e-08
-1.23735e-06
3.4698e-08
-1.27245e-06
3.50984e-08
-1.30796e-06
3.55129e-08
-1.3439e-06
3.59412e-08
-1.38028e-06
3.63828e-08
-1.41712e-06
3.68373e-08
-1.45442e-06
3.7304e-08
-1.49221e-06
3.77823e-08
-1.53049e-06
3.82715e-08
-1.56926e-06
3.8771e-08
-1.60855e-06
3.92801e-08
-1.64835e-06
3.97982e-08
-1.68867e-06
4.03244e-08
-1.72953e-06
4.08582e-08
-1.77092e-06
4.13988e-08
-1.81287e-06
4.1946e-08
-1.85537e-06
4.24996e-08
-1.89843e-06
4.30594e-08
-1.94206e-06
4.36251e-08
-1.98626e-06
4.41964e-08
-2.03104e-06
4.47734e-08
-2.0764e-06
4.53559e-08
-2.12236e-06
4.59441e-08
-2.16891e-06
4.65387e-08
-2.21605e-06
4.7141e-08
-2.26381e-06
4.77531e-08
-2.31219e-06
4.83773e-08
-2.3612e-06
4.90161e-08
-2.41087e-06
4.96717e-08
-2.46121e-06
5.0347e-08
-2.51225e-06
5.10455e-08
-2.56402e-06
5.17716e-08
-2.61655e-06
5.25301e-08
-2.66988e-06
5.33256e-08
-2.72404e-06
5.4163e-08
-2.77909e-06
5.50474e-08
-2.83508e-06
5.59836e-08
-2.89205e-06
5.69756e-08
-2.95008e-06
5.8026e-08
-3.00921e-06
5.91363e-08
-3.06951e-06
6.03063e-08
-3.13104e-06
6.15333e-08
-3.19385e-06
6.28113e-08
-3.25799e-06
6.41316e-08
-3.32347e-06
6.54828e-08
-3.39033e-06
6.68509e-08
-3.45855e-06
6.82172e-08
-3.5281e-06
6.95573e-08
-3.59895e-06
7.08419e-08
-3.67098e-06
7.20384e-08
-3.74409e-06
7.31094e-08
-3.81809e-06
7.40112e-08
-3.89278e-06
7.46943e-08
-3.96789e-06
7.51066e-08
-4.04309e-06
7.51944e-08
-4.11799e-06
7.49001e-08
-4.19216e-06
7.41618e-08
-4.26507e-06
7.29132e-08
-4.33616e-06
7.10854e-08
-4.40477e-06
6.86066e-08
-4.47018e-06
6.54046e-08
-4.53158e-06
6.1409e-08
-4.58813e-06
5.65509e-08
-4.63889e-06
5.07609e-08
-4.68285e-06
4.39689e-08
-4.71895e-06
3.61094e-08
-4.74607e-06
2.71237e-08
-4.76303e-06
1.69599e-08
-4.76855e-06
5.52717e-09
-4.76136e-06
-7.19113e-09
-4.74028e-06
-2.10856e-08
-4.70421e-06
-3.6077e-08
-4.6521e-06
-5.21243e-08
-4.58292e-06
-6.91818e-08
-4.49574e-06
-8.71893e-08
-4.3897e-06
-1.06053e-07
-4.26407e-06
-1.25646e-07
-4.11826e-06
-1.45815e-07
-3.9519e-06
-1.66357e-07
-3.76485e-06
-1.87036e-07
-3.55723e-06
-2.07598e-07
-3.3295e-06
-2.27748e-07
-3.08239e-06
-2.47127e-07
-2.81701e-06
-2.65367e-07
-2.53494e-06
-2.82059e-07
-2.23818e-06
-2.9676e-07
-1.92905e-06
-3.09126e-07
-1.61008e-06
-3.18954e-07
-1.28395e-06
-3.26135e-07
-9.53362e-07
-3.30579e-07
-6.21625e-07
-3.31737e-07
-2.89653e-07
-3.31968e-07
3.82844e-08
-3.27946e-07
3.52704e-07
-3.14409e-07
6.48188e-07
-2.9548e-07
9.22948e-07
-2.74768e-07
1.17621e-06
-2.53277e-07
1.40777e-06
-2.31585e-07
1.61798e-06
-2.10232e-07
1.80765e-06
-1.89687e-07
1.97794e-06
-1.70293e-07
2.1302e-06
-1.52247e-07
2.26588e-06
-1.3565e-07
2.38644e-06
-1.20518e-07
2.49324e-06
-1.06783e-07
2.58758e-06
-9.43369e-08
2.6707e-06
-8.30885e-08
2.74368e-06
-7.29597e-08
2.80749e-06
-6.38261e-08
2.86302e-06
-5.55551e-08
2.91111e-06
-4.80792e-08
2.95244e-06
-4.13328e-08
2.98766e-06
-3.52272e-08
3.01731e-06
-2.96694e-08
3.04186e-06
-2.45587e-08
3.06169e-06
-1.98272e-08
3.07705e-06
-1.53686e-08
3.08811e-06
-1.10598e-08
3.09484e-06
-6.73795e-09
3.09706e-06
-2.21853e-09
3.09419e-06
2.87262e-09
3.08482e-06
9.36831e-09
3.06604e-06
1.87895e-08
3.03098e-06
3.50598e-08
2.96253e-06
6.84457e-08
1.61375e-07
2.80115e-06
9.29428e-09
-1.8504e-08
1.6184e-08
-1.87224e-08
1.99801e-08
-1.50053e-08
2.09616e-08
-1.00078e-08
1.92604e-08
-4.41021e-09
1.49241e-08
1.43021e-09
8.07803e-09
7.22772e-09
-1.11685e-09
1.27767e-08
-1.25098e-08
1.79784e-08
-2.59251e-08
2.27499e-08
-4.11733e-08
2.71191e-08
-5.80579e-08
3.11074e-08
-7.63758e-08
3.47162e-08
-9.59755e-08
3.79421e-08
-1.16731e-07
4.08049e-08
-1.3851e-07
4.33315e-08
-1.61185e-07
4.55473e-08
-1.84643e-07
4.74769e-08
-2.08779e-07
4.9145e-08
-2.33502e-07
5.05765e-08
-2.58731e-07
5.17966e-08
-2.84394e-07
5.28303e-08
-3.10429e-07
5.37018e-08
-3.36782e-07
5.44338e-08
-3.63408e-07
5.50473e-08
-3.90271e-07
5.55612e-08
-4.17339e-07
5.59927e-08
-4.4459e-07
5.63572e-08
-4.72008e-07
5.66684e-08
-4.99584e-07
5.69384e-08
-5.27316e-07
5.71778e-08
-5.55208e-07
5.73964e-08
-5.8327e-07
5.76025e-08
-6.11513e-07
5.7805e-08
-6.39941e-07
5.80169e-08
-6.68531e-07
5.82596e-08
-6.97159e-07
5.85562e-08
-7.25844e-07
5.8879e-08
-7.54704e-07
5.9193e-08
-7.83742e-07
5.95154e-08
-8.12958e-07
5.98582e-08
-8.42357e-07
6.02256e-08
-8.71946e-07
6.06193e-08
-9.01736e-07
6.10402e-08
-9.31739e-07
6.14888e-08
-9.61967e-07
6.19655e-08
-9.92431e-07
6.24706e-08
-1.02314e-06
6.30044e-08
-1.05412e-06
6.3567e-08
-1.08537e-06
6.41583e-08
-1.11691e-06
6.47782e-08
-1.14876e-06
6.54267e-08
-1.18092e-06
6.61035e-08
-1.21341e-06
6.68084e-08
-1.24624e-06
6.7541e-08
-1.27944e-06
6.83011e-08
-1.31301e-06
6.90883e-08
-1.34697e-06
6.99025e-08
-1.38132e-06
7.07434e-08
-1.4161e-06
7.1611e-08
-1.4513e-06
7.25048e-08
-1.48695e-06
7.34248e-08
-1.52306e-06
7.43705e-08
-1.55963e-06
7.53417e-08
-1.5967e-06
7.63375e-08
-1.63426e-06
7.73576e-08
-1.67234e-06
7.84011e-08
-1.71095e-06
7.9468e-08
-1.75012e-06
8.0558e-08
-1.78985e-06
8.16709e-08
-1.83015e-06
8.28069e-08
-1.87106e-06
8.3966e-08
-1.91259e-06
8.51486e-08
-1.95475e-06
8.63554e-08
-1.99757e-06
8.75872e-08
-2.04107e-06
8.88452e-08
-2.08526e-06
9.01309e-08
-2.13017e-06
9.14459e-08
-2.17582e-06
9.27924e-08
-2.22224e-06
9.41729e-08
-2.26946e-06
9.55901e-08
-2.31749e-06
9.70472e-08
-2.36636e-06
9.85479e-08
-2.41612e-06
1.00097e-07
-2.46678e-06
1.01699e-07
-2.51837e-06
1.03359e-07
-2.57093e-06
1.05083e-07
-2.62448e-06
1.06876e-07
-2.67906e-06
1.08742e-07
-2.73469e-06
1.10685e-07
-2.79141e-06
1.12708e-07
-2.84924e-06
1.14813e-07
-2.9082e-06
1.17001e-07
-2.96832e-06
1.19269e-07
-3.02962e-06
1.21614e-07
-3.09211e-06
1.24027e-07
-3.15579e-06
1.26496e-07
-3.22067e-06
1.29004e-07
-3.28672e-06
1.31528e-07
-3.35392e-06
1.3404e-07
-3.42221e-06
1.36502e-07
-3.49152e-06
1.38868e-07
-3.56176e-06
1.41082e-07
-3.6328e-06
1.4308e-07
-3.70448e-06
1.44788e-07
-3.7766e-06
1.46125e-07
-3.8489e-06
1.46998e-07
-3.92111e-06
1.4731e-07
-3.99288e-06
1.46956e-07
-4.06381e-06
1.45823e-07
-4.13345e-06
1.43791e-07
-4.20127e-06
1.40733e-07
-4.26671e-06
1.36515e-07
-4.32911e-06
1.31e-07
-4.38776e-06
1.24049e-07
-4.44189e-06
1.15525e-07
-4.49064e-06
1.05292e-07
-4.5331e-06
9.32167e-08
-4.5683e-06
7.91681e-08
-4.59522e-06
6.30222e-08
-4.61276e-06
4.46659e-08
-4.6198e-06
2.40023e-08
-4.61516e-06
8.8527e-10
-4.5977e-06
-2.46439e-08
-4.56638e-06
-5.23969e-08
-4.52015e-06
-8.23053e-08
-4.45797e-06
-1.14291e-07
-4.37887e-06
-1.48266e-07
-4.28193e-06
-1.84115e-07
-4.1663e-06
-2.21671e-07
-4.03122e-06
-2.60707e-07
-3.8761e-06
-3.00924e-07
-3.70054e-06
-3.41925e-07
-3.50436e-06
-3.83235e-07
-3.28761e-06
-4.24338e-07
-3.05069e-06
-4.64652e-07
-2.79435e-06
-5.03472e-07
-2.51968e-06
-5.40046e-07
-2.22816e-06
-5.73585e-07
-1.92169e-06
-6.03242e-07
-1.60259e-06
-6.28253e-07
-1.2735e-06
-6.48051e-07
-9.37153e-07
-6.625e-07
-5.95606e-07
-6.72134e-07
-2.49861e-07
-6.77495e-07
9.14942e-08
-6.7332e-07
4.16557e-07
-6.53026e-07
7.22465e-07
-6.20329e-07
1.00897e-06
-5.8198e-07
1.27486e-06
-5.40652e-07
1.51936e-06
-4.9776e-07
1.74236e-06
-4.54554e-07
1.94433e-06
-4.12175e-07
2.12619e-06
-3.71535e-07
2.28919e-06
-3.33289e-07
2.43473e-06
-2.97812e-07
2.56428e-06
-2.65248e-07
2.67933e-06
-2.35586e-07
2.78124e-06
-2.08714e-07
2.87131e-06
-1.84437e-07
2.95073e-06
-1.62531e-07
3.02058e-06
-1.42802e-07
3.08183e-06
-1.25053e-07
3.13535e-06
-1.09063e-07
3.18193e-06
-9.4642e-08
3.22224e-06
-8.16269e-08
3.25689e-06
-6.98521e-08
3.2864e-06
-5.9153e-08
3.31121e-06
-4.9358e-08
3.3317e-06
-4.02979e-08
3.3481e-06
-3.17746e-08
3.36059e-06
-2.35404e-08
3.36914e-06
-1.52873e-08
3.3735e-06
-6.57595e-09
3.37305e-06
3.32181e-09
3.36664e-06
1.57742e-08
3.35207e-06
3.33665e-08
3.32528e-06
6.18351e-08
3.27939e-06
1.14331e-07
2.2516e-07
3.21561e-06
3.85138e-09
-2.2347e-08
4.26734e-09
-1.91269e-08
1.75709e-09
-1.24904e-08
-3.26267e-09
-4.98513e-09
-1.04475e-08
2.77691e-09
-1.94677e-08
1.04522e-08
-3.00764e-08
1.78378e-08
-4.21396e-08
2.48408e-08
-5.55559e-08
3.13955e-08
-7.02674e-08
3.74617e-08
-8.61805e-08
4.30321e-08
-1.03185e-07
4.81113e-08
-1.21177e-07
5.27077e-08
-1.40072e-07
5.68357e-08
-1.59786e-07
6.05183e-08
-1.80238e-07
6.37834e-08
-2.01353e-07
6.66611e-08
-2.23059e-07
6.9183e-08
-2.45295e-07
7.13808e-08
-2.68006e-07
7.32867e-08
-2.91142e-07
7.49322e-08
-3.14659e-07
7.63481e-08
-3.3852e-07
7.75635e-08
-3.62691e-07
7.86062e-08
-3.87144e-07
7.95014e-08
-4.11854e-07
8.02726e-08
-4.368e-07
8.09409e-08
-4.61966e-07
8.15253e-08
-4.87339e-07
8.2043e-08
-5.12909e-07
8.25097e-08
-5.38668e-07
8.29391e-08
-5.64614e-07
8.33435e-08
-5.90743e-07
8.37335e-08
-6.17055e-07
8.41184e-08
-6.43543e-07
8.4507e-08
-6.7019e-07
8.49089e-08
-6.96964e-07
8.5332e-08
-7.23856e-07
8.57739e-08
-7.50892e-07
8.62315e-08
-7.78085e-07
8.67104e-08
-8.05441e-07
8.72162e-08
-8.32967e-07
8.77528e-08
-8.6067e-07
8.83227e-08
-8.88557e-07
8.89274e-08
-9.16636e-07
8.95684e-08
-9.44916e-07
9.02466e-08
-9.73407e-07
9.09627e-08
-1.00212e-06
9.17175e-08
-1.03106e-06
9.25112e-08
-1.06024e-06
9.33442e-08
-1.08968e-06
9.42166e-08
-1.11938e-06
9.51285e-08
-1.14935e-06
9.60801e-08
-1.17961e-06
9.70712e-08
-1.21017e-06
9.81019e-08
-1.24104e-06
9.91721e-08
-1.27224e-06
1.00282e-07
-1.30376e-06
1.01431e-07
-1.33564e-06
1.0262e-07
-1.36788e-06
1.03848e-07
-1.40049e-06
1.05117e-07
-1.4335e-06
1.06425e-07
-1.4669e-06
1.07774e-07
-1.50072e-06
1.09162e-07
-1.53498e-06
1.10591e-07
-1.56968e-06
1.1206e-07
-1.60485e-06
1.13569e-07
-1.6405e-06
1.15118e-07
-1.67665e-06
1.1671e-07
-1.71332e-06
1.18344e-07
-1.75054e-06
1.20021e-07
-1.78832e-06
1.21743e-07
-1.82669e-06
1.23512e-07
-1.86567e-06
1.2533e-07
-1.90528e-06
1.27199e-07
-1.94556e-06
1.29121e-07
-1.98653e-06
1.31099e-07
-2.02823e-06
1.33138e-07
-2.07068e-06
1.35239e-07
-2.11391e-06
1.37407e-07
-2.15797e-06
1.39646e-07
-2.20287e-06
1.41958e-07
-2.24867e-06
1.4435e-07
-2.2954e-06
1.46826e-07
-2.3431e-06
1.49392e-07
-2.39179e-06
1.52051e-07
-2.44152e-06
1.5481e-07
-2.49231e-06
1.57671e-07
-2.54421e-06
1.60637e-07
-2.59723e-06
1.6371e-07
-2.65141e-06
1.6689e-07
-2.70677e-06
1.70175e-07
-2.76333e-06
1.7356e-07
-2.8211e-06
1.77038e-07
-2.88008e-06
1.80598e-07
-2.94028e-06
1.84225e-07
-3.00168e-06
1.87898e-07
-3.06427e-06
1.91589e-07
-3.128e-06
1.95264e-07
-3.19284e-06
1.98879e-07
-3.25872e-06
2.02378e-07
-3.32554e-06
2.05693e-07
-3.39321e-06
2.08745e-07
-3.46157e-06
2.11441e-07
-3.53045e-06
2.13674e-07
-3.59965e-06
2.15325e-07
-3.66892e-06
2.16262e-07
-3.73796e-06
2.16343e-07
-3.80642e-06
2.15414e-07
-3.8739e-06
2.13308e-07
-3.93996e-06
2.0985e-07
-4.00408e-06
2.04853e-07
-4.06569e-06
1.98121e-07
-4.12414e-06
1.89454e-07
-4.17873e-06
1.78646e-07
-4.2287e-06
1.65494e-07
-4.2732e-06
1.49796e-07
-4.31134e-06
1.31354e-07
-4.34215e-06
1.09979e-07
-4.36462e-06
8.54895e-08
-4.37768e-06
5.77271e-08
-4.38025e-06
2.65674e-08
-4.37126e-06
-8.11255e-09
-4.34966e-06
-4.62475e-08
-4.31442e-06
-8.76384e-08
-4.26454e-06
-1.32191e-07
-4.19903e-06
-1.79812e-07
-4.11692e-06
-2.30382e-07
-4.0173e-06
-2.83738e-07
-3.89932e-06
-3.39653e-07
-3.76221e-06
-3.97812e-07
-3.60534e-06
-4.57786e-07
-3.42826e-06
-5.19008e-07
-3.23071e-06
-5.80788e-07
-3.0127e-06
-6.42354e-07
-2.77451e-06
-7.02843e-07
-2.51677e-06
-7.61205e-07
-2.24049e-06
-8.16333e-07
-1.94698e-06
-8.67085e-07
-1.63804e-06
-9.12176e-07
-1.31587e-06
-9.50422e-07
-9.82952e-07
-9.80971e-07
-6.41776e-07
-1.00368e-06
-2.95072e-07
-1.01884e-06
4.8715e-08
-1.02128e-06
3.7866e-07
-1.00326e-06
6.91348e-07
-9.65713e-07
9.86796e-07
-9.15778e-07
1.26321e-06
-8.58401e-07
1.51898e-06
-7.96421e-07
1.75326e-06
-7.32049e-07
1.96601e-06
-6.67307e-07
2.1578e-06
-6.03968e-07
2.3297e-06
-5.43428e-07
2.48307e-06
-4.86648e-07
2.61943e-06
-4.34162e-07
2.74034e-06
-3.8615e-07
2.84731e-06
-3.42551e-07
2.94176e-06
-3.03155e-07
3.02498e-06
-2.67661e-07
3.09816e-06
-2.35723e-07
3.16237e-06
-2.07013e-07
3.21854e-06
-1.8122e-07
3.26751e-06
-1.58039e-07
3.31005e-06
-1.37181e-07
3.34681e-06
-1.18388e-07
3.37837e-06
-1.01411e-07
3.40522e-06
-8.60065e-08
3.42778e-06
-7.19268e-08
3.4464e-06
-5.89185e-08
3.46133e-06
-4.66973e-08
3.47271e-06
-3.49149e-08
3.48055e-06
-2.31257e-08
3.48466e-06
-1.06917e-08
3.48461e-06
3.37808e-09
3.47959e-06
2.08011e-08
3.46831e-06
4.46495e-08
3.44914e-06
8.09965e-08
3.4215e-06
1.41971e-07
2.51495e-07
3.39517e-06
-2.46743e-09
-1.98765e-08
-8.1102e-09
-1.34718e-08
-1.59206e-08
-4.6734e-09
-2.53414e-08
4.4398e-09
-3.59719e-08
1.34103e-08
-4.75855e-08
2.20686e-08
-6.00935e-08
3.03483e-08
-7.34427e-08
3.81923e-08
-8.75986e-08
4.55539e-08
-1.02536e-07
5.24015e-08
-1.18221e-07
5.87198e-08
-1.34614e-07
6.45065e-08
-1.51672e-07
6.97689e-08
-1.69357e-07
7.45228e-08
-1.87627e-07
7.87911e-08
-2.06443e-07
8.26019e-08
-2.25766e-07
8.59869e-08
-2.4556e-07
8.89797e-08
-2.65792e-07
9.16152e-08
-2.86431e-07
9.39281e-08
-3.0745e-07
9.59528e-08
-3.28823e-07
9.77222e-08
-3.50527e-07
9.92679e-08
-3.7254e-07
1.00619e-07
-3.94843e-07
1.01804e-07
-4.17416e-07
1.02846e-07
-4.40246e-07
1.03769e-07
-4.63315e-07
1.04594e-07
-4.86612e-07
1.05339e-07
-5.10124e-07
1.06022e-07
-5.33841e-07
1.06656e-07
-5.57752e-07
1.07255e-07
-5.81848e-07
1.07831e-07
-6.06119e-07
1.08392e-07
-6.30557e-07
1.08949e-07
-6.55152e-07
1.09508e-07
-6.79892e-07
1.10077e-07
-7.04775e-07
1.10661e-07
-7.29804e-07
1.11265e-07
-7.54984e-07
1.11894e-07
-7.80318e-07
1.12553e-07
-8.05808e-07
1.13245e-07
-8.31459e-07
1.13974e-07
-8.57274e-07
1.14742e-07
-8.83258e-07
1.15552e-07
-9.09417e-07
1.16405e-07
-9.35756e-07
1.17302e-07
-9.62282e-07
1.18244e-07
-9.89003e-07
1.19232e-07
-1.01593e-06
1.20268e-07
-1.04306e-06
1.2135e-07
-1.07041e-06
1.2248e-07
-1.09798e-06
1.23658e-07
-1.12579e-06
1.24884e-07
-1.15385e-06
1.26159e-07
-1.18216e-06
1.27483e-07
-1.21073e-06
1.28855e-07
-1.23958e-06
1.30277e-07
-1.2687e-06
1.31749e-07
-1.29813e-06
1.33271e-07
-1.32786e-06
1.34845e-07
-1.35791e-06
1.3647e-07
-1.38828e-06
1.38148e-07
-1.419e-06
1.39879e-07
-1.45007e-06
1.41664e-07
-1.48152e-06
1.43504e-07
-1.51335e-06
1.454e-07
-1.54559e-06
1.47354e-07
-1.57825e-06
1.49367e-07
-1.61135e-06
1.51442e-07
-1.64491e-06
1.53582e-07
-1.67895e-06
1.55788e-07
-1.71351e-06
1.58066e-07
-1.7486e-06
1.60418e-07
-1.78425e-06
1.62848e-07
-1.8205e-06
1.65363e-07
-1.85737e-06
1.67966e-07
-1.89489e-06
1.70662e-07
-1.93311e-06
1.73457e-07
-1.97206e-06
1.76357e-07
-2.01179e-06
1.79367e-07
-2.05232e-06
1.82494e-07
-2.09371e-06
1.85742e-07
-2.13601e-06
1.89119e-07
-2.17925e-06
1.9263e-07
-2.22347e-06
1.9628e-07
-2.26874e-06
2.00073e-07
-2.31508e-06
2.04012e-07
-2.36254e-06
2.08098e-07
-2.41115e-06
2.1233e-07
-2.46096e-06
2.16703e-07
-2.512e-06
2.21211e-07
-2.56428e-06
2.25844e-07
-2.61783e-06
2.30589e-07
-2.67266e-06
2.35425e-07
-2.72876e-06
2.4033e-07
-2.78614e-06
2.45271e-07
-2.84476e-06
2.50211e-07
-2.90459e-06
2.551e-07
-2.96559e-06
2.59879e-07
-3.02769e-06
2.64474e-07
-3.09079e-06
2.68795e-07
-3.15479e-06
2.72738e-07
-3.21953e-06
2.76183e-07
-3.28485e-06
2.78992e-07
-3.35054e-06
2.81009e-07
-3.41634e-06
2.82065e-07
-3.48198e-06
2.81973e-07
-3.54709e-06
2.8053e-07
-3.6113e-06
2.77519e-07
-3.67416e-06
2.72709e-07
-3.73517e-06
2.65857e-07
-3.79375e-06
2.56705e-07
-3.84929e-06
2.4499e-07
-3.90108e-06
2.30441e-07
-3.94838e-06
2.12786e-07