/*--------------------------------*- C++ -*----------------------------------*\
| =========                 |                                                 |
| \\      /  F ield         | OpenFOAM: The Open Source CFD Toolbox           |
|  \\    /   O peration     | Version:  1.4.2                                 |
|   \\  /    A nd           | Web:      http://www.openfoam.org               |
|    \\/     M anipulation  |                                                 |
\*---------------------------------------------------------------------------*/
FoamFile
{
    version     2.0;
    format      ascii;
    class       volVectorField;
    object      U;
    location    "550";
}
// * * * * * * * * * * * * * * * * * * * * * * * * * * * * * * * * * * * * * //

dimensions      [0 1 -1 0 0 0 0];

internalField   nonuniform List<vector> 
12225
(
(9.7763 0.0380817 0)
(9.58163 0.038806 0)
(9.36734 0.0370242 0)
(9.16166 0.0361607 0)
(8.97079 0.0352163 0)
(8.79257 0.0340452 0)
(8.62583 0.0327772 0)
(8.47026 0.0314748 0)
(8.32552 0.0301516 0)
(8.19116 0.0288143 0)
(8.06671 0.0274652 0)
(7.95174 0.0261039 0)
(7.84588 0.0247253 0)
(7.74884 0.0233081 0)
(7.6605 0.0218063 0)
(7.58106 0.0201025 0)
(7.51219 0.0179389 0)
(7.44732 0.00488226 0)
(10.004 0.0585776 0)
(10.0077 0.0555313 0)
(9.98304 0.0518667 0)
(9.95103 0.0514381 0)
(9.91818 0.0511617 0)
(9.88401 0.0505038 0)
(9.84851 0.0496713 0)
(9.81227 0.0487538 0)
(9.77576 0.0477494 0)
(9.73932 0.0466517 0)
(9.70327 0.045453 0)
(9.66788 0.0441375 0)
(9.6335 0.042676 0)
(9.60048 0.041 0)
(9.56935 0.0389661 0)
(9.54085 0.0362411 0)
(9.51654 0.0319929 0)
(9.49446 0.0224424 0)
(10.0174 0.0524325 0)
(10.037 0.0526797 0)
(10.0383 0.0512555 0)
(10.0337 0.052205 0)
(10.0284 0.0528337 0)
(10.0221 0.0528236 0)
(10.0147 0.052508 0)
(10.0066 0.0520307 0)
(9.99805 0.0514079 0)
(9.98923 0.0506387 0)
(9.98026 0.0497153 0)
(9.97128 0.048611 0)
(9.96247 0.0472724 0)
(9.95401 0.0455905 0)
(9.94617 0.0433471 0)
(9.93925 0.0400919 0)
(9.93353 0.0348056 0)
(9.92572 0.0249564 0)
(10.0158 0.0449605 0)
(10.0375 0.0501429 0)
(10.0459 0.0506801 0)
(10.0488 0.0521962 0)
(10.0509 0.0531774 0)
(10.052 0.0534778 0)
(10.0523 0.0534146 0)
(10.0521 0.0531354 0)
(10.0515 0.0526682 0)
(10.0507 0.052017 0)
(10.0499 0.0511734 0)
(10.0491 0.0501038 0)
(10.0484 0.0487415 0)
(10.0479 0.0469613 0)
(10.0478 0.0445342 0)
(10.048 0.0410557 0)
(10.0484 0.0358638 0)
(10.0467 0.0280461 0)
(10.0125 0.0370922 0)
(10.0331 0.0461705 0)
(10.0445 0.0486092 0)
(10.0508 0.0507328 0)
(10.0559 0.0520477 0)
(10.0601 0.0525911 0)
(10.0635 0.0526919 0)
(10.0664 0.0525151 0)
(10.0689 0.052106 0)
(10.0713 0.0514751 0)
(10.0735 0.050615 0)
(10.0757 0.0494902 0)
(10.078 0.0480312 0)
(10.0804 0.0461164 0)
(10.0829 0.0435442 0)
(10.0854 0.0400108 0)
(10.0876 0.0351502 0)
(10.0881 0.0287359 0)
(10.0094 0.0302479 0)
(10.0272 0.041412 0)
(10.0399 0.0454763 0)
(10.0482 0.0482769 0)
(10.0551 0.0499878 0)
(10.061 0.0508111 0)
(10.0661 0.0510933 0)
(10.0706 0.0510205 0)
(10.0748 0.050662 0)
(10.0787 0.0500425 0)
(10.0824 0.0491605 0)
(10.0861 0.0479844 0)
(10.0897 0.0464498 0)
(10.0933 0.0444514 0)
(10.0969 0.0418322 0)
(10.1002 0.0383922 0)
(10.103 0.0339686 0)
(10.1045 0.0286394 0)
(10.0067 0.0244954 0)
(10.0215 0.0364201 0)
(10.034 0.0416413 0)
(10.0433 0.0450128 0)
(10.0513 0.0471184 0)
(10.0583 0.048244 0)
(10.0645 0.048733 0)
(10.0701 0.0487868 0)
(10.0753 0.0484965 0)
(10.0802 0.0479013 0)
(10.0848 0.0470093 0)
(10.0893 0.0457982 0)
(10.0937 0.0442167 0)
(10.0979 0.0421848 0)
(10.1019 0.039595 0)
(10.1056 0.0363352 0)
(10.1087 0.0323666 0)
(10.1107 0.0278733 0)
(10.005 0.0203793 0)
(10.0173 0.0322507 0)
(10.029 0.0380763 0)
(10.0385 0.0418054 0)
(10.0468 0.0441761 0)
(10.0544 0.0455194 0)
(10.0611 0.0461717 0)
(10.0673 0.0463375 0)
(10.0731 0.0461171 0)
(10.0785 0.0455584 0)
(10.0837 0.0446776 0)
(10.0886 0.0434625 0)
(10.0934 0.0418765 0)
(10.0979 0.0398637 0)
(10.1021 0.0373565 0)
(10.106 0.0343007 0)
(10.1092 0.0307173 0)
(10.1116 0.0268066 0)
(10.0038 0.0172288 0)
(10.0141 0.0286729 0)
(10.0249 0.0347954 0)
(10.0341 0.0387544 0)
(10.0425 0.0413087 0)
(10.0502 0.042813 0)
(10.0573 0.0435921 0)
(10.0639 0.043848 0)
(10.07 0.0436873 0)
(10.0758 0.0431652 0)
(10.0813 0.0423046 0)
(10.0865 0.0411026 0)
(10.0915 0.0395358 0)
(10.0962 0.0375688 0)
(10.1006 0.0351651 0)
(10.1045 0.0323093 0)
(10.1078 0.0290539 0)
(10.1104 0.0255923 0)
(10.0029 0.0143777 0)
(10.0112 0.0250367 0)
(10.0208 0.0312212 0)
(10.0296 0.0352895 0)
(10.0378 0.0379634 0)
(10.0455 0.0395925 0)
(10.0527 0.0404784 0)
(10.0594 0.0408159 0)
(10.0658 0.0407142 0)
(10.0718 0.0402337 0)
(10.0775 0.0394041 0)
(10.0829 0.0382323 0)
(10.088 0.0367094 0)
(10.0928 0.0348202 0)
(10.0972 0.0325548 0)
(10.1012 0.0299268 0)
(10.1046 0.0270045 0)
(10.1075 0.0239643 0)
(10.0021 0.0118242 0)
(10.0088 0.0214268 0)
(10.0171 0.0274375 0)
(10.0252 0.0314695 0)
(10.033 0.0341717 0)
(10.0404 0.0358666 0)
(10.0475 0.0368216 0)
(10.0543 0.0372185 0)
(10.0606 0.0371653 0)
(10.0667 0.0367259 0)
(10.0725 0.0359358 0)
(10.078 0.0348116 0)
(10.0831 0.0333583 0)
(10.088 0.0315787 0)
(10.0924 0.0294836 0)
(10.0964 0.0271056 0)
(10.0999 0.0245167 0)
(10.1029 0.0218699 0)
(10.0015 0.00956454 0)
(10.0068 0.0179194 0)
(10.0138 0.0235249 0)
(10.0211 0.027369 0)
(10.0283 0.0299911 0)
(10.0354 0.0316745 0)
(10.0422 0.0326456 0)
(10.0487 0.0330672 0)
(10.055 0.0330426 0)
(10.061 0.0326366 0)
(10.0667 0.0318896 0)
(10.0721 0.0308266 0)
(10.0772 0.0294646 0)
(10.082 0.0278206 0)
(10.0863 0.0259197 0)
(10.0903 0.0238038 0)
(10.0938 0.0215408 0)
(10.0969 0.0192574 0)
(10.0011 0.00757545 0)
(10.0052 0.0145695 0)
(10.0111 0.0195568 0)
(10.0175 0.0230606 0)
(10.0241 0.0254866 0)
(10.0306 0.0270698 0)
(10.037 0.0279934 0)
(10.0433 0.0283963 0)
(10.0493 0.0283733 0)
(10.055 0.0279875 0)
(10.0605 0.0272822 0)
(10.0658 0.0262889 0)
(10.0707 0.0250333 0)
(10.0753 0.023542 0)
(10.0795 0.0218476 0)
(10.0834 0.019994 0)
(10.0868 0.0180407 0)
(10.09 0.0160888 0)
(10.0009 0.00581341 0)
(10.0041 0.0113991 0)
(10.0089 0.0155882 0)
(10.0145 0.0186036 0)
(10.0204 0.0207158 0)
(10.0263 0.022105 0)
(10.0323 0.022912 0)
(10.0381 0.0232485 0)
(10.0438 0.0231963 0)
(10.0492 0.0228142 0)
(10.0544 0.0221457 0)
(10.0594 0.0212254 0)
(10.0641 0.0200839 0)
(10.0684 0.0187523 0)
(10.0725 0.0172652 0)
(10.0762 0.0156634 0)
(10.0796 0.0139961 0)
(10.0827 0.012342 0)
(10.0007 0.00422389 0)
(10.0032 0.00839482 0)
(10.0073 0.0116452 0)
(10.0121 0.0140341 0)
(10.0173 0.0157172 0)
(10.0227 0.0168183 0)
(10.0281 0.0174373 0)
(10.0335 0.0176573 0)
(10.0388 0.0175438 0)
(10.0439 0.0171472 0)
(10.0488 0.0165076 0)
(10.0534 0.0156589 0)
(10.0578 0.0146323 0)
(10.062 0.0134587 0)
(10.0658 0.0121703 0)
(10.0693 0.010802 0)
(10.0726 0.00939272 0)
(10.0756 0.00800258 0)
(10.0005 0.00274696 0)
(10.0026 0.00550706 0)
(10.006 0.00771156 0)
(10.0103 0.00934993 0)
(10.0149 0.0104942 0)
(10.0198 0.0112156 0)
(10.0248 0.0115756 0)
(10.0297 0.0116284 0)
(10.0346 0.0114201 0)
(10.0394 0.0109887 0)
(10.0439 0.010367 0)
(10.0483 0.00958391 0)
(10.0524 0.00866698 0)
(10.0563 0.00764297 0)
(10.0599 0.00653884 0)
(10.0633 0.00538216 0)
(10.0664 0.00420227 0)
(10.0693 0.00304439 0)
(10.0005 0.0013165 0)
(10.0023 0.00264933 0)
(10.0053 0.00371883 0)
(10.009 0.0044978 0)
(10.0132 0.00500305 0)
(10.0177 0.00525967 0)
(10.0223 0.00529323 0)
(10.0269 0.00512914 0)
(10.0315 0.00479152 0)
(10.0359 0.00430279 0)
(10.0402 0.00368403 0)
(10.0443 0.00295544 0)
(10.0481 0.00213692 0)
(10.0518 0.00124829 0)
(10.0552 0.000309217 0)
(10.0585 -0.000660611 0)
(10.0615 -0.00164035 0)
(10.0643 -0.00259633 0)
(10.0004 -6.85212e-05 0)
(10.0021 -0.000143219 0)
(10.005 -0.000223872 0)
(10.0085 -0.000335374 0)
(10.0126 -0.000502471 0)
(10.0168 -0.000741292 0)
(10.0212 -0.00106016 0)
(10.0256 -0.00146185 0)
(10.0299 -0.00194494 0)
(10.0341 -0.00250465 0)
(10.0382 -0.0031336 0)
(10.0421 -0.00382239 0)
(10.0458 -0.00456029 0)
(10.0493 -0.00533585 0)
(10.0526 -0.00613716 0)
(10.0557 -0.00695195 0)
(10.0586 -0.00776654 0)
(10.0614 -0.00855661 0)
(10.0005 -0.00138588 0)
(10.0022 -0.00278474 0)
(10.0052 -0.00392869 0)
(10.0088 -0.00485009 0)
(10.0129 -0.00562093 0)
(10.0171 -0.00629939 0)
(10.0215 -0.00692689 0)
(10.0258 -0.00753348 0)
(10.03 -0.00813971 0)
(10.0342 -0.0087578 0)
(10.0381 -0.00939362 0)
(10.0419 -0.0100484 0)
(10.0456 -0.0107202 0)
(10.049 -0.0114049 0)
(10.0522 -0.0120971 0)
(10.0553 -0.0127904 0)
(10.0581 -0.0134764 0)
(10.0609 -0.0141377 0)
(10.0005 -0.002695 0)
(10.0026 -0.0053518 0)
(10.0059 -0.00744074 0)
(10.0098 -0.00904368 0)
(10.0141 -0.0103039 0)
(10.0185 -0.0113266 0)
(10.0229 -0.0121862 0)
(10.0273 -0.0129394 0)
(10.0316 -0.0136271 0)
(10.0357 -0.0142762 0)
(10.0397 -0.0149039 0)
(10.0434 -0.0155199 0)
(10.047 -0.0161293 0)
(10.0504 -0.016734 0)
(10.0536 -0.0173337 0)
(10.0566 -0.0179265 0)
(10.0594 -0.0185081 0)
(10.0621 -0.0190665 0)
(10.0007 -0.00411217 0)
(10.0032 -0.00802324 0)
(10.0071 -0.0109455 0)
(10.0115 -0.0130974 0)
(10.0161 -0.0147294 0)
(10.0208 -0.0159968 0)
(10.0254 -0.0170074 0)
(10.0299 -0.0178441 0)
(10.0343 -0.018566 0)
(10.0384 -0.0192124 0)
(10.0424 -0.0198091 0)
(10.0461 -0.0203724 0)
(10.0497 -0.0209128 0)
(10.053 -0.0214365 0)
(10.0562 -0.0219472 0)
(10.0591 -0.0224466 0)
(10.0619 -0.0229339 0)
(10.0646 -0.0234018 0)
(10.0009 -0.00576315 0)
(10.0043 -0.010947 0)
(10.009 -0.0145602 0)
(10.014 -0.0171099 0)
(10.0191 -0.0189877 0)
(10.0241 -0.0203938 0)
(10.0289 -0.0214691 0)
(10.0335 -0.022322 0)
(10.0379 -0.023027 0)
(10.042 -0.0236326 0)
(10.046 -0.0241703 0)
(10.0497 -0.0246613 0)
(10.0531 -0.0251193 0)
(10.0564 -0.0255535 0)
(10.0595 -0.0259704 0)
(10.0623 -0.0263745 0)
(10.065 -0.0267683 0)
(10.0675 -0.027149 0)
(10.0014 -0.00780063 0)
(10.0059 -0.0142433 0)
(10.0117 -0.0183363 0)
(10.0174 -0.0211034 0)
(10.0229 -0.0230875 0)
(10.0281 -0.0245175 0)
(10.033 -0.025566 0)
(10.0377 -0.0263653 0)
(10.042 -0.0270009 0)
(10.0461 -0.0275264 0)
(10.0499 -0.0279768 0)
(10.0534 -0.0283751 0)
(10.0567 -0.0287366 0)
(10.0598 -0.0290716 0)
(10.0627 -0.0293881 0)
(10.0653 -0.0296924 0)
(10.0678 -0.0299899 0)
(10.0701 -0.0302833 0)
(10.0021 -0.0104126 0)
(10.0083 -0.0179886 0)
(10.0153 -0.0222473 0)
(10.0216 -0.025017 0)
(10.0273 -0.0269533 0)
(10.0326 -0.0282864 0)
(10.0375 -0.0292182 0)
(10.042 -0.0298996 0)
(10.0461 -0.0304206 0)
(10.0498 -0.0308346 0)
(10.0533 -0.031176 0)
(10.0566 -0.0314672 0)
(10.0595 -0.0317228 0)
(10.0623 -0.0319525 0)
(10.0648 -0.0321638 0)
(10.0671 -0.032364 0)
(10.0693 -0.0325611 0)
(10.0713 -0.0327645 0)
(10.0033 -0.0138209 0)
(10.0117 -0.0221747 0)
(10.0198 -0.0261663 0)
(10.0263 -0.0287017 0)
(10.0319 -0.0304369 0)
(10.0369 -0.0315635 0)
(10.0414 -0.0323038 0)
(10.0454 -0.0328175 0)
(10.049 -0.0331912 0)
(10.0522 -0.0334738 0)
(10.0552 -0.0336961 0)
(10.0579 -0.0338772 0)
(10.0603 -0.0340289 0)
(10.0626 -0.0341579 0)
(10.0646 -0.0342693 0)
(10.0665 -0.0343682 0)
(10.0682 -0.0344645 0)
(10.0697 -0.0345754 0)
(10.0051 -0.018282 0)
(10.016 -0.0266312 0)
(10.0247 -0.0298236 0)
(10.0307 -0.0319038 0)
(10.0356 -0.0333055 0)
(10.0398 -0.0341417 0)
(10.0434 -0.0346461 0)
(10.0465 -0.0349741 0)
(10.0492 -0.0351975 0)
(10.0516 -0.0353532 0)
(10.0537 -0.0354645 0)
(10.0556 -0.0355455 0)
(10.0573 -0.0356036 0)
(10.0588 -0.0356419 0)
(10.0602 -0.0356606 0)
(10.0613 -0.03566 0)
(10.0623 -0.0356469 0)
(10.0631 -0.0356431 0)
(10.0075 -0.0241155 0)
(10.0207 -0.0310033 0)
(10.0288 -0.0327832 0)
(10.0331 -0.0342722 0)
(10.0364 -0.0353049 0)
(10.0391 -0.0358447 0)
(10.0411 -0.036122 0)
(10.0426 -0.0362797 0)
(10.0438 -0.03637 0)
(10.0447 -0.0364153 0)
(10.0454 -0.0364303 0)
(10.0459 -0.0364241 0)
(10.0462 -0.0364004 0)
(10.0464 -0.0363585 0)
(10.0464 -0.0362933 0)
(10.0463 -0.0361958 0)
(10.0461 -0.0360615 0)
(10.0456 -0.0358996 0)
(10.0101 -0.0307394 0)
(10.0239 -0.034394 0)
(10.0287 -0.0343403 0)
(10.0293 -0.0352053 0)
(10.029 -0.0358969 0)
(10.0282 -0.0361735 0)
(10.0268 -0.036246 0)
(10.0249 -0.0362412 0)
(10.0227 -0.0361948 0)
(10.0203 -0.0361197 0)
(10.0178 -0.0360261 0)
(10.0151 -0.0359203 0)
(10.0123 -0.035804 0)
(10.0095 -0.0356737 0)
(10.0066 -0.0355193 0)
(10.0037 -0.0353187 0)
(10.0007 -0.0350377 0)
(9.9974 -0.0346127 0)
(10.0062 -0.0364045 0)
(10.0142 -0.0379393 0)
(10.0067 -0.0360999 0)
(9.9943 -0.0359578 0)
(9.98171 -0.0359754 0)
(9.96893 -0.035763 0)
(9.95576 -0.0354609 0)
(9.94239 -0.0351554 0)
(9.92901 -0.0348589 0)
(9.9157 -0.0345685 0)
(9.90252 -0.0342837 0)
(9.8895 -0.034004 0)
(9.87667 -0.0337272 0)
(9.86405 -0.0334478 0)
(9.85167 -0.033154 0)
(9.83956 -0.0328159 0)
(9.82776 -0.0323651 0)
(9.81572 -0.0314153 0)
(9.89292 -0.0248298 0)
(9.80338 -0.0270736 0)
(9.69909 -0.0264844 0)
(9.59614 -0.0263337 0)
(9.49966 -0.0261395 0)
(9.40872 -0.0257919 0)
(9.32246 -0.0253832 0)
(9.24063 -0.0249673 0)
(9.16309 -0.0245566 0)
(9.08959 -0.0241528 0)
(9.01992 -0.0237563 0)
(8.95387 -0.0233672 0)
(8.89123 -0.0229847 0)
(8.83184 -0.0226066 0)
(8.77553 -0.0222278 0)
(8.72217 -0.0218324 0)
(8.67186 -0.0213734 0)
(8.62308 -0.0204928 0)
(0.00526098 -0.00992781 0)
(0.0132399 -0.0145251 0)
(0.0237151 -0.0151451 0)
(0.0329738 -0.0131717 0)
(0.0398295 -0.00990152 0)
(0.0439169 -0.00614073 0)
(0.0451355 -0.00228397 -2.01455e-19)
(0.0433343 0.00149312 1.93596e-19)
(0.0387971 0.00504833 0)
(0.0317272 0.00837843 1.87236e-19)
(0.0223459 0.0115633 0)
(0.0108911 0.0146452 0)
(-0.00284932 0.0175685 0)
(-0.0183165 0.0200356 -1.81684e-19)
(-0.0353549 0.0220626 0)
(-0.0538745 0.0237638 0)
(-0.0736729 0.0251917 1.45342e-19)
(-0.0945898 0.0263738 0)
(-0.116481 0.0273346 0)
(-0.139212 0.0280992 0)
(-0.162661 0.028693 -1.10695e-19)
(-0.186719 0.0291403 0)
(-0.21129 0.0294633 -9.80499e-20)
(-0.236293 0.0296817 0)
(-0.261658 0.0298117 0)
(-0.287325 0.0298665 -8.32855e-20)
(-0.313243 0.0298555 0)
(-0.339372 0.0297844 7.55583e-20)
(-0.365675 0.0296548 0)
(-0.392126 0.0294645 -6.9099e-20)
(-0.4187 0.0292078 0)
(-0.445365 0.0288769 0)
(-0.472083 0.0284668 0)
(-0.498833 0.0279956 0)
(-0.525649 0.0275527 0)
(-0.552614 0.027359 5.45155e-20)
(-0.57975 0.0278323 0)
(-0.607113 0.0283078 -1.01498e-19)
(-0.634726 0.0283092 0)
(-0.66249 0.0282608 9.5505e-20)
(-0.69043 0.0282327 0)
(-0.718567 0.0282276 0)
(-0.746919 0.028242 -8.77973e-20)
(-0.775503 0.0282732 0)
(-0.804333 0.0283196 -8.33321e-20)
(-0.833425 0.0283802 8.12692e-20)
(-0.862794 0.0284539 0)
(-0.892455 0.0285399 7.74398e-20)
(-0.922424 0.0286375 7.56587e-20)
(-0.952715 0.0287459 0)
(-0.983343 0.0288645 0)
(-1.01432 0.0289929 0)
(-1.04567 0.0291308 0)
(-1.07739 0.0292777 0)
(-1.10951 0.0294335 -6.6482e-20)
(-1.14204 0.0295976 0)
(-1.17499 0.0297693 6.38926e-20)
(-1.20838 0.029948 0)
(-1.24223 0.0301327 0)
(-1.27653 0.0303227 -6.03555e-20)
(-1.31132 0.0305173 0)
(-1.34659 0.0307158 5.81988e-20)
(-1.38236 0.0309175 0)
(-1.41864 0.0311214 0)
(-1.45544 0.0313268 0)
(-1.49278 0.0315328 -5.42975e-20)
(-1.53066 0.0317385 0)
(-1.56909 0.0319433 0)
(-1.60809 0.0321466 -5.16843e-20)
(-1.64765 0.0323477 0)
(-1.68779 0.0325459 -5.00738e-20)
(-1.72852 0.0327405 0)
(-1.76984 0.0329306 0)
(-1.81177 0.033116 0)
(-1.85431 0.0332963 4.71392e-20)
(-1.89746 0.0334717 0)
(-1.94124 0.0336421 0)
(-1.98564 0.0338078 4.5169e-20)
(-2.03068 0.0339692 4.45538e-20)
(-2.07636 0.0341271 0)
(-2.12271 0.0342823 4.33843e-20)
(-2.16975 0.0344361 0)
(-2.21747 0.0345902 8.4589e-20)
(-2.26591 0.0347472 0)
(-2.31509 0.0349102 8.25656e-20)
(-2.36503 0.0350822 0)
(-2.41577 0.0352665 -8.06957e-20)
(-2.46734 0.0354664 0)
(-2.51978 0.0356855 0)
(-2.57315 0.0359273 0)
(-2.62749 0.0361951 7.74075e-20)
(-2.68285 0.0364912 0)
(-2.7393 0.0368175 -7.5985e-20)
(-2.79689 0.0371751 0)
(-2.85568 0.0375644 7.47074e-20)
(-2.91574 0.0379843 7.41222e-20)
(-2.97712 0.0384321 7.35722e-20)
(-3.03988 0.0389033 0)
(-3.10406 0.0393919 0)
(-3.16969 0.0398895 0)
(-3.23679 0.0403851 0)
(-3.30534 0.0408651 0)
(-3.37532 0.0413132 0)
(-3.44668 0.0417116 0)
(-3.51931 0.0420402 0)
(-3.5931 0.042277 -7.00257e-20)
(-3.66786 0.042398 -6.97467e-20)
(-3.74337 0.0423777 0)
(-3.81935 0.0421898 0)
(-3.89548 0.0418061 0)
(-3.97137 0.0411973 -6.86232e-20)
(-4.04655 0.0403325 0)
(-4.12051 0.0391796 0)
(-4.19266 0.0377075 0)
(-4.26236 0.0358861 0)
(-4.32886 0.0336857 6.6381e-20)
(-4.39135 0.0310755 0)
(-4.44892 0.028026 0)
(-4.50062 0.0245139 -6.37829e-20)
(-4.54547 0.0205174 6.25671e-20)
(-4.58246 0.0160012 0)
(-4.61044 0.0109185 5.94435e-20)
(-4.62807 0.00524853 0)
(-4.63388 -0.000958961 -5.50127e-20)
(-4.62678 -0.00766533 0)
(-4.60561 -0.0148659 0)
(-4.56924 -0.0225532 0)
(-4.51658 -0.0307171 0)
(-4.44657 -0.0393427 0)
(-4.35819 -0.0484078 6.03509e-20)
(-4.25056 -0.0578834 4.77153e-20)
(-4.12293 -0.0677262 0)
(-3.97468 -0.0778732 0)
(-3.8054 -0.0882579 0)
(-3.6149 -0.0988159 2.04658e-20)
(-3.40334 -0.109471 0)
(-3.17124 -0.120141 0)
(-2.91955 -0.130733 0)
(-2.64949 -0.141069 1.27176e-19)
(-2.36252 -0.150853 -1.62197e-19)
(-2.06051 -0.159741 0)
(-1.746 -0.167594 0)
(-1.42244 -0.174714 -2.94994e-19)
(-1.09382 -0.181488 -3.50839e-19)
(-0.763876 -0.18732 0)
(-0.435092 -0.191474 0)
(-0.0974238 -0.190312 5.58192e-19)
(0.230103 -0.180637 -5.56333e-19)
(0.531587 -0.168015 0)
(0.815157 -0.154547 0)
(1.0789 -0.140834 -4.59564e-19)
(1.32215 -0.127304 0)
(1.54484 -0.114285 0)
(1.74747 -0.102016 -4.04646e-19)
(1.93094 -0.0906528 0)
(2.09637 -0.080267 -3.80673e-19)
(2.24508 -0.0708742 0)
(2.37841 -0.0624475 0)
(2.49768 -0.0549285 0)
(2.60418 -0.048238 3.499e-19)
(2.69908 -0.0422968 0)
(2.78351 -0.0370352 0)
(2.85845 -0.0323803 0)
(2.92479 -0.0282549 0)
(2.98335 -0.0245908 0)
(3.03486 -0.0213363 0)
(3.08001 -0.0184455 3.25446e-19)
(3.11934 -0.0158683 3.23828e-19)
(3.15335 -0.0135549 0)
(3.18244 -0.0114643 0)
(3.20694 -0.00955006 0)
(3.22701 -0.00776336 -3.20937e-19)
(3.24276 -0.00604584 0)
(3.25398 -0.00433523 6.43602e-19)
(3.26038 -0.00250637 -6.45545e-19)
(3.26095 -0.00030829 -6.4858e-19)
(3.25364 0.00272217 6.53648e-19)
(3.23328 0.00781286 -6.62153e-19)
(3.19301 0.0181961 6.77221e-19)
(3.06293 0.0481397 0)
(0.00539276 -0.0278493 0)
(0.0120703 -0.031429 0)
(0.0164173 -0.027455 2.68893e-19)
(0.0185756 -0.0207384 0)
(0.0183338 -0.0127309 -1.98737e-19)
(0.0156952 -0.00418132 -1.86817e-19)
(0.0106771 0.00445683 -8.92156e-20)
(0.00359117 0.0127081 -8.58761e-20)
(-0.00559647 0.0203582 0)
(-0.0166173 0.027202 -7.69015e-20)
(-0.0293711 0.0333476 0)
(-0.0436738 0.0388758 0)
(-0.0593547 0.043774 1.26987e-19)
(-0.0762443 0.0480239 5.95514e-20)
(-0.0942316 0.0516879 -1.11556e-19)
(-0.113206 0.0548303 -1.04679e-19)
(-0.133053 0.057498 -4.92361e-20)
(-0.153666 0.0597333 0)
(-0.174949 0.0615768 0)
(-0.196816 0.0630695 0)
(-0.219192 0.0642519 -3.89061e-20)
(-0.242008 0.0651639 0)
(-0.265205 0.0658432 1.0543e-19)
(-0.288733 0.0663247 0)
(-0.312548 0.0666403 0)
(-0.336615 0.066818 3.05884e-20)
(-0.360905 0.0668828 0)
(-0.385395 0.0668564 -2.81474e-20)
(-0.410069 0.0667581 -5.40172e-20)
(-0.434918 0.0666048 2.6109e-20)
(-0.459938 0.0664119 0)
(-0.485129 0.0661932 0)
(-0.510498 0.0659597 0)
(-0.53606 0.0657183 -4.58041e-20)
(-0.561824 0.0654746 -4.45309e-20)
(-0.587766 0.0652432 -2.17358e-20)
(-0.613821 0.0650587 0)
(-0.639968 0.0649255 4.11546e-20)
(-0.66626 0.0648016 0)
(-0.692743 0.064696 -3.90776e-20)
(-0.71942 0.0646188 0)
(-0.746294 0.0645717 0)
(-0.773372 0.0645536 3.64085e-20)
(-0.800663 0.0645634 0)
(-0.828177 0.0646003 1.04314e-19)
(-0.855928 0.0646634 -3.41749e-20)
(-0.883926 0.0647522 0)
(-0.912185 0.0648657 -3.28833e-20)
(-0.940718 0.0650034 -3.22886e-20)
(-0.969538 0.0651643 0)
(-0.998656 0.0653477 0)
(-1.02809 0.0655528 0)
(-1.05785 0.0657789 0)
(-1.08794 0.0660252 0)
(-1.11839 0.0662911 2.93038e-20)
(-1.14922 0.066576 5.74455e-20)
(-1.18042 0.066879 -2.84922e-20)
(-1.21202 0.0671993 0)
(-1.24403 0.0675359 5.51748e-20)
(-1.27647 0.0678879 -2.7075e-20)
(-1.30935 0.0682543 0)
(-1.34268 0.068634 -2.67707e-20)
(-1.37647 0.0690257 0)
(-1.41075 0.0694282 0)
(-1.44553 0.06984 -5.14829e-20)
(-1.48081 0.0702599 2.56527e-20)
(-1.51663 0.0706869 -5.04609e-20)
(-1.553 0.0711202 4.99842e-20)
(-1.58992 0.0715591 2.49395e-20)
(-1.62742 0.0720031 0)
(-1.66552 0.0724516 2.45177e-20)
(-1.70423 0.0729042 0)
(-1.74358 0.0733604 0)
(-1.78358 0.0738203 0)
(-1.82425 0.074284 2.34356e-20)
(-1.8656 0.0747519 0)
(-1.90768 0.0752247 4.66182e-20)
(-1.95048 0.0757035 -6.96926e-20)
(-1.99405 0.0761896 -2.32232e-20)
(-2.0384 0.076685 0)
(-2.08357 0.0771918 -2.29946e-20)
(-2.12958 0.0777127 0)
(-2.17645 0.0782514 -4.56082e-20)
(-2.22422 0.0788118 0)
(-2.27292 0.0793984 -4.53028e-20)
(-2.32257 0.0800159 8.96103e-20)
(-2.37322 0.0806684 4.50714e-20)
(-2.42488 0.0813604 0)
(-2.4776 0.0820966 0)
(-2.53142 0.0828812 0)
(-2.58635 0.0837179 -4.48184e-20)
(-2.64243 0.0846088 0)
(-2.69969 0.0855547 4.47865e-20)
(-2.75816 0.0865546 0)
(-2.81786 0.0876057 -1.33661e-19)
(-2.87882 0.0887025 -4.4837e-20)
(-2.94105 0.0898364 -4.48757e-20)
(-3.00455 0.0909959 0)
(-3.06932 0.0921659 0)
(-3.13535 0.0933267 0)
(-3.2026 0.0944537 0)
(-3.27104 0.0955167 0)
(-3.34058 0.0964809 -8.97565e-20)
(-3.41113 0.0973068 -8.99083e-20)
(-3.48256 0.0979508 0)
(-3.5547 0.0983647 4.54446e-20)
(-3.62735 0.0984966 4.54947e-20)
(-3.70025 0.0982911 0)
(-3.77312 0.0976898 9.04697e-20)
(-3.8456 0.0966318 0)
(-3.91729 0.0950539 -4.49422e-20)
(-3.98772 0.0928903 0)
(-4.05638 0.0900728 0)
(-4.12266 0.0865339 8.9754e-20)
(-4.18592 0.082209 0)
(-4.24544 0.0770357 -4.4459e-20)
(-4.30042 0.0709509 0)
(-4.34997 0.0638937 0)
(-4.39314 0.0558153 -4.27529e-20)
(-4.42899 0.0466763 -4.19177e-20)
(-4.45655 0.0364215 0)
(-4.47472 0.024969 4.00865e-20)
(-4.48215 0.012254 0)
(-4.47758 -0.00165154 -3.71597e-20)
(-4.4601 -0.0165933 -6.96924e-20)
(-4.42858 -0.0325017 0)
(-4.38194 -0.0493163 0)
(-4.31912 -0.0669722 0)
(-4.2391 -0.0853893 0)
(-4.14092 -0.104466 -3.83655e-20)
(-4.02369 -0.124076 -9.38737e-20)
(-3.88664 -0.144057 0)
(-3.72919 -0.164202 0)
(-3.5509 -0.184275 0)
(-3.35159 -0.204027 -1.20823e-20)
(-3.13139 -0.223195 0)
(-2.89084 -0.241501 0)
(-2.63083 -0.258675 9.7675e-20)
(-2.35251 -0.274366 5.9525e-20)
(-2.05732 -0.288089 8.31969e-20)
(-1.74719 -0.299351 0)
(-1.42492 -0.308043 0)
(-1.09389 -0.314884 1.32425e-19)
(-0.756979 -0.320994 -1.38827e-19)
(-0.415421 -0.326345 0)
(-0.067147 -0.327245 0)
(0.26861 -0.318056 -1.77082e-19)
(0.585058 -0.3008 5.16133e-19)
(0.882999 -0.280824 0)
(1.16168 -0.25968 0)
(1.41994 -0.238023 1.70428e-19)
(1.65729 -0.216441 0)
(1.87388 -0.195456 3.32283e-19)
(2.07037 -0.17549 -1.63684e-19)
(2.24781 -0.156836 0)
(2.40748 -0.139654 1.68154e-19)
(2.5508 -0.124 3.33553e-19)
(2.67918 -0.109851 0)
(2.794 -0.0971337 0)
(2.89658 -0.08574 -1.69903e-19)
(2.98808 -0.0755513 0)
(3.06964 -0.0664595 3.41204e-19)
(3.14224 -0.0583568 0)
(3.20679 -0.0511297 0)
(3.26409 -0.0446749 0)
(3.31485 -0.0389075 0)
(3.3597 -0.0337478 -1.76443e-19)
(3.39918 -0.0291112 -1.77615e-19)
(3.43378 -0.0249147 0)
(3.46388 -0.0210818 0)
(3.4898 -0.0175241 0)
(3.51171 -0.0141397 1.83041e-19)
(3.5297 -0.0108031 0)
(3.54362 -0.00735558 -3.73052e-19)
(3.55299 -0.00350784 3.76991e-19)
(3.55693 0.0012919 3.81318e-19)
(3.55385 0.00807013 3.86495e-19)
(3.54004 0.0192391 3.94971e-19)
(3.51333 0.0407546 4.06347e-19)
(3.44389 0.0907048 0)
(0.00223195 -0.0415205 0)
(0.00425824 -0.0385021 0)
(0.00312444 -0.0282807 -2.04156e-19)
(-0.000195436 -0.0161355 -1.65291e-19)
(-0.00563404 -0.00333365 1.43207e-19)
(-0.0128958 0.00945285 1.27689e-19)
(-0.021607 0.0216634 4.54852e-23)
(-0.0316751 0.0330686 0)
(-0.042995 0.0435458 0)
(-0.0554964 0.0530417 0)
(-0.0691206 0.0615766 0)
(-0.0837748 0.0691853 0)
(-0.099363 0.0759013 -2.30545e-19)
(-0.115804 0.0817631 0)
(-0.133026 0.0868263 6.83245e-20)
(-0.150958 0.0911537 6.45434e-20)
(-0.16953 0.094809 0)
(-0.188678 0.0978555 0)
(-0.208345 0.100355 0)
(-0.228479 0.102368 0)
(-0.249033 0.103954 4.97164e-20)
(-0.269968 0.105168 0)
(-0.291248 0.106063 -4.5335e-20)
(-0.312842 0.106686 0)
(-0.334723 0.107082 0)
(-0.356868 0.107289 0)
(-0.379258 0.107343 -7.68803e-20)
(-0.401878 0.107274 0)
(-0.424715 0.107109 3.58329e-20)
(-0.44776 0.106874 -6.91824e-20)
(-0.471004 0.10659 0)
(-0.494444 0.106277 0)
(-0.518077 0.105951 0)
(-0.541904 0.105629 3.0724e-20)
(-0.565927 0.105325 2.98981e-20)
(-0.590135 0.105054 0)
(-0.614501 0.104824 0)
(-0.639008 0.104614 -5.51963e-20)
(-0.663664 0.104413 -5.38607e-20)
(-0.688488 0.104233 5.2605e-20)
(-0.71349 0.104083 0)
(-0.738675 0.10397 0)
(-0.764051 0.103895 0)
(-0.789624 0.10386 0)
(-0.815402 0.103865 -4.75073e-20)
(-0.841395 0.103909 -4.64914e-20)
(-0.867611 0.103993 4.56681e-20)
(-0.89406 0.104116 0)
(-0.920754 0.104277 0)
(-0.947701 0.104476 0)
(-0.974912 0.104711 0)
(-1.0024 0.104982 -4.21822e-20)
(-1.03017 0.105288 0)
(-1.05824 0.105628 0)
(-1.08662 0.106001 -4.05054e-20)
(-1.11533 0.106406 -4.01532e-20)
(-1.14436 0.106842 0)
(-1.17375 0.107308 7.81518e-20)
(-1.2035 0.107805 -3.87986e-20)
(-1.23361 0.10833 3.83926e-20)
(-1.26412 0.108882 0)
(-1.29502 0.109462 0)
(-1.32634 0.110067 0)
(-1.35808 0.110696 0)
(-1.39027 0.111348 3.66583e-20)
(-1.42292 0.112022 7.24225e-20)
(-1.45604 0.112717 3.60895e-20)
(-1.48966 0.113434 -3.58299e-20)
(-1.52379 0.114171 0)
(-1.55846 0.114929 7.0406e-20)
(-1.59367 0.115707 6.99814e-20)
(-1.62946 0.116506 6.95881e-20)
(-1.66585 0.117326 -6.92259e-20)
(-1.70286 0.118169 0)
(-1.74051 0.119034 -1.03052e-19)
(-1.77884 0.119923 0)
(-1.81787 0.120838 3.38853e-20)
(-1.85762 0.121779 3.41033e-20)
(-1.89814 0.122748 0)
(-1.93945 0.123747 0)
(-1.98159 0.124779 6.74663e-20)
(-2.02459 0.125848 0)
(-2.06849 0.126956 6.73516e-20)
(-2.11333 0.128107 0)
(-2.15914 0.129306 -6.73685e-20)
(-2.20597 0.130556 -1.35187e-19)
(-2.25383 0.131859 0)
(-2.30279 0.133218 0)
(-2.35286 0.134635 0)
(-2.40408 0.136112 -6.79584e-20)
(-2.45649 0.137651 0)
(-2.51011 0.13925 -6.83903e-20)
(-2.56497 0.140905 0)
(-2.62108 0.142613 0)
(-2.67846 0.144364 1.38769e-19)
(-2.73712 0.146148 0)
(-2.79705 0.147948 6.98326e-20)
(-2.85826 0.149745 0)
(-2.92072 0.151513 7.05058e-20)
(-2.98439 0.15322 0)
(-3.04924 0.154827 0)
(-3.1152 0.156286 0)
(-3.18217 0.157541 2.1605e-19)
(-3.25006 0.158532 7.25728e-20)
(-3.31871 0.159188 0)
(-3.38796 0.159433 0)
(-3.45758 0.159184 0)
(-3.52732 0.158352 0)
(-3.59689 0.156843 -7.38979e-20)
(-3.66593 0.154558 1.47695e-19)
(-3.73404 0.151396 7.41223e-20)
(-3.80075 0.147252 -1.48004e-19)
(-3.86555 0.142018 -1.47905e-19)
(-3.92784 0.135586 -7.38272e-20)
(-3.98698 0.127853 0)
(-4.04227 0.118717 -1.46173e-19)
(-4.09291 0.10808 0)
(-4.13802 0.0958476 1.43394e-19)
(-4.17667 0.0819392 7.04066e-20)
(-4.20791 0.0662891 0)
(-4.23082 0.0488286 -1.35797e-19)
(-4.24431 0.0294821 -6.5547e-20)
(-4.24697 0.00821676 0)
(-4.23794 -0.0148592 -6.15165e-20)
(-4.21614 -0.0395809 1.71496e-19)
(-4.18055 -0.0658499 0)
(-4.13011 -0.0935697 0)
(-4.0638 -0.122633 0)
(-3.98063 -0.152906 0)
(-3.87964 -0.184223 6.62858e-20)
(-3.75994 -0.216369 5.03996e-20)
(-3.62074 -0.249069 0)
(-3.4614 -0.281973 0)
(-3.28147 -0.314675 0)
(-3.08069 -0.346739 0)
(-2.85913 -0.377691 0)
(-2.61723 -0.407002 0)
(-2.35574 -0.434129 -7.28243e-20)
(-2.07563 -0.458426 -4.86959e-21)
(-1.77818 -0.479134 0)
(-1.46538 -0.495661 0)
(-1.14015 -0.508066 -1.50509e-19)
(-0.805644 -0.517304 0)
(-0.463814 -0.524239 1.94759e-19)
(-0.115757 -0.525924 2.01457e-19)
(0.223871 -0.516544 0)
(0.545715 -0.495628 0)
(0.851789 -0.467828 -2.09524e-19)
(1.14055 -0.436607 -4.09451e-19)
(1.41 -0.40351 0)
(1.65887 -0.369626 0)
(1.88667 -0.335926 0)
(2.09364 -0.303248 -2.08328e-19)
(2.28057 -0.272246 2.08799e-19)
(2.44865 -0.243357 0)
(2.59929 -0.216812 4.17004e-19)
(2.734 -0.192672 2.08135e-19)
(2.85429 -0.17088 -4.23105e-19)
(2.96158 -0.151309 0)
(3.05719 -0.133789 0)
(3.14234 -0.11813 -4.3407e-19)
(3.21812 -0.104154 -2.19995e-19)
(3.28551 -0.091691 0)
(3.34538 -0.0805769 0)
(3.39852 -0.0706563 0)
(3.44562 -0.0617913 0)
(3.48728 -0.0538546 -4.5896e-19)
(3.52402 -0.0467202 0)
(3.55631 -0.0402639 0)
(3.58451 -0.0343633 0)
(3.60891 -0.0288823 0)
(3.6297 -0.0236631 0)
(3.64696 -0.0185099 0)
(3.66058 -0.0131518 -4.94094e-19)
(3.67022 -0.00715822 0)
(3.67523 0.000227561 0)
(3.67459 0.0103732 -1.0356e-18)
(3.66614 0.0261191 5.31072e-19)
(3.65083 0.0534736 -5.52165e-19)
(3.61618 0.106102 5.82841e-19)
(-0.00171816 -0.0422972 0)
(-0.0044214 -0.0329633 5.12511e-19)
(-0.010231 -0.0180206 0)
(-0.0179192 -0.00206289 1.30571e-19)
(-0.0268878 0.0137595 0)
(-0.0367628 0.0288661 0)
(-0.0474696 0.0430881 -8.56848e-20)
(-0.0589499 0.0563282 0)
(-0.0711673 0.0685156 0)
(-0.084099 0.0796129 0)
(-0.0977223 0.0896203 0)
(-0.112005 0.0985607 0)
(-0.12691 0.106472 2.22782e-19)
(-0.142404 0.113406 1.05157e-19)
(-0.158452 0.119421 -9.95169e-20)
(-0.175019 0.124588 0)
(-0.192072 0.128977 0)
(-0.209577 0.132661 0)
(-0.227505 0.135713 0)
(-0.245828 0.138201 0)
(-0.264521 0.140194 7.44052e-20)
(-0.28356 0.141755 7.13189e-20)
(-0.302925 0.142944 -6.8471e-20)
(-0.322597 0.143813 6.58395e-20)
(-0.342558 0.144413 0)
(-0.362792 0.144788 0)
(-0.383284 0.144979 5.91069e-20)
(-0.404022 0.145019 0)
(-0.424994 0.14494 0)
(-0.446189 0.14477 5.3672e-20)
(-0.467597 0.144532 5.20439e-20)
(-0.489209 0.144247 5.05711e-20)
(-0.511018 0.14393 0)
(-0.533015 0.143597 0)
(-0.555194 0.143259 -4.66653e-20)
(-0.577549 0.14293 0)
(-0.60007 0.142621 0)
(-0.62275 0.142336 4.34444e-20)
(-0.645589 0.142077 -4.23426e-20)
(-0.668592 0.141851 4.1425e-20)
(-0.691763 0.141662 0)
(-0.715105 0.141516 0)
(-0.738621 0.141415 7.80917e-20)
(-0.762317 0.14136 0)
(-0.786196 0.141354 7.52798e-20)
(-0.810265 0.141395 1.11053e-19)
(-0.834529 0.141485 -1.09226e-19)
(-0.858995 0.141623 7.16212e-20)
(-0.883671 0.141809 0)
(-0.908562 0.142042 0)
(-0.933678 0.142321 6.85277e-20)
(-0.959026 0.142647 3.387e-20)
(-0.984615 0.143017 0)
(-1.01045 0.143432 0)
(-1.03655 0.14389 3.26278e-20)
(-1.06291 0.14439 6.43789e-20)
(-1.08955 0.144932 0)
(-1.11648 0.145515 -6.31468e-20)
(-1.14371 0.146138 6.23837e-20)
(-1.17125 0.146801 -6.17894e-20)
(-1.1991 0.147503 0)
(-1.22729 0.148243 0)
(-1.25582 0.14902 0)
(-1.28471 0.149833 0)
(-1.31396 0.150682 0)
(-1.34361 0.151567 -5.90116e-20)
(-1.37365 0.152487 0)
(-1.4041 0.153444 0)
(-1.435 0.154437 0)
(-1.46634 0.155467 -1.15146e-19)
(-1.49816 0.156535 -5.73644e-20)
(-1.53047 0.157642 -5.71165e-20)
(-1.5633 0.158791 1.13658e-19)
(-1.59667 0.159984 -5.65681e-20)