/*--------------------------------*- C++ -*----------------------------------*\
| =========                 |                                                 |
| \\      /  F ield         | OpenFOAM: The Open Source CFD Toolbox           |
|  \\    /   O peration     | Version:  1.4.2                                 |
|   \\  /    A nd           | Web:      http://www.openfoam.org               |
|    \\/     M anipulation  |                                                 |
\*---------------------------------------------------------------------------*/
FoamFile
{
    version     2.0;
    format      ascii;
    class       volScalarField;
    object      epsilon;
    location    "400";
}
// * * * * * * * * * * * * * * * * * * * * * * * * * * * * * * * * * * * * * //

dimensions      [0 2 -3 0 0 0 0];

internalField   nonuniform List<scalar> 
12225
(
443.026
353.451
290.584
245.342
212.184
187.587
169.236
155.561
145.472
138.194
133.165
129.966
128.279
127.858
128.505
130.058
132.385
135.645
60.1661
73.6163
79.5701
83.6993
87.7211
92.3642
97.9831
104.76
112.794
122.136
132.808
144.802
158.084
172.591
188.228
204.859
222.246
240.449
26.2963
33.7101
37.8447
40.6837
42.9314
44.9559
46.9698
49.1011
51.43
54.0077
56.8668
60.026
63.4926
67.262
71.3153
75.6118
80.066
84.5199
18.7359
22.7244
25.4811
27.3752
28.8168
30.012
31.0725
32.072
33.0599
34.0692
35.1216
36.231
37.405
38.6459
39.9507
41.3098
42.7049
44.0937
16.1689
18.1644
19.9339
21.293
22.345
23.1845
23.8861
24.5034
25.0705
25.6091
26.134
26.6556
27.1808
27.7136
28.2553
28.8054
29.3605
29.9028
15.2355
16.087
17.0496
17.9386
18.691
19.3131
19.8317
20.2728
20.6579
21.0038
21.3229
21.6241
21.9133
22.1946
22.4704
22.7419
23.0087
23.2613
14.8943
15.1703
15.5871
16.0534
16.5081
16.9241
17.2923
17.6127
17.8914
18.1364
18.3549
18.5529
18.7353
18.9057
19.0667
19.2198
19.3649
19.496
14.7876
14.8381
14.9919
15.2099
15.4549
15.7027
15.9392
16.1571
16.3543
16.5312
16.6898
16.8325
16.9621
17.0809
17.1908
17.2932
17.3883
17.472
14.7441
14.6885
14.7004
14.7665
14.8681
14.9892
15.1179
15.2461
15.3689
15.4838
15.5899
15.6871
15.7761
15.8576
15.9326
16.0021
16.0664
16.1233
14.7239
14.6133
14.5425
14.509
14.5064
14.5265
14.562
14.6069
14.6565
14.7077
14.7584
14.8071
14.8533
14.8966
14.937
14.9747
15.0098
15.0413
14.7149
14.5789
14.4656
14.3756
14.3074
14.2583
14.2247
14.2034
14.1912
14.1858
14.1849
14.1872
14.1914
14.1967
14.2027
14.209
14.2152
14.2208
14.7109
14.5642
14.4317
14.3139
14.2107
14.1212
14.0442
13.9783
13.922
13.8736
13.8319
13.7958
13.7641
13.7361
13.7112
13.6887
13.6684
13.6499
14.7089
14.5577
14.4175
14.2879
14.1686
14.0594
13.9596
13.8687
13.7859
13.7106
13.6418
13.579
13.5215
13.4686
13.4198
13.3747
13.3329
13.2946
14.7077
14.5544
14.4111
14.277
14.1514
14.0339
13.9241
13.8216
13.7258
13.6365
13.553
13.475
13.4021
13.3338
13.2698
13.2098
13.1535
13.1015
14.7068
14.5523
14.4076
14.2716
14.1436
14.0231
13.9095
13.8024
13.7013
13.606
13.516
13.431
13.3506
13.2747
13.2028
13.1349
13.0707
13.011
14.706
14.5508
14.4052
14.2683
14.1393
14.0176
13.9026
13.7938
13.6908
13.5933
13.5008
13.4131
13.3298
13.2508
13.1756
13.1043
13.0366
12.9736
14.7055
14.5498
14.4037
14.2663
14.1367
14.0144
13.8988
13.7894
13.6857
13.5873
13.4939
13.4053
13.321
13.2409
13.1646
13.0921
13.0233
12.9591
14.7053
14.5494
14.4031
14.2655
14.1358
14.0132
13.8974
13.7877
13.6838
13.5853
13.4917
13.4029
13.3185
13.2382
13.1619
13.0893
13.0205
12.9563
14.7055
14.5497
14.4036
14.2661
14.1366
14.0143
13.8987
13.7895
13.686
13.5881
13.4952
13.4072
13.3237
13.2445
13.1693
13.098
13.0305
12.9676
14.7059
14.5507
14.4052
14.2686
14.14
14.0191
13.9053
13.7982
13.6973
13.6022
13.5126
13.4282
13.3485
13.2734
13.2024
13.1354
13.0723
13.0139
14.7068
14.5529
14.4094
14.2758
14.1514
14.036
13.9288
13.8295
13.7374
13.652
13.5727
13.4989
13.4302
13.3661
13.3061
13.25
13.1976
13.1494
14.7086
14.5589
14.4229
14.3004
14.1909
14.0937
14.0076
13.9312
13.8632
13.8025
13.748
13.6987
13.6537
13.6124
13.5743
13.5388
13.5058
13.4756
14.7142
14.5803
14.471
14.3855
14.3211
14.2741
14.2407
14.2173
14.201
14.1895
14.1811
14.1745
14.1687
14.1631
14.1572
14.151
14.1443
14.1375
14.7358
14.6588
14.6349
14.6532
14.7001
14.7634
14.834
14.9056
14.974
15.0367
15.0926
15.1412
15.1828
15.2177
15.2466
15.2701
15.289
15.3041
14.8205
14.9297
15.1376
15.394
15.6591
15.9108
16.1381
16.3364
16.5053
16.6475
16.7662
16.8648
16.9466
17.0143
17.0703
17.1168
17.1553
17.1875
15.1412
15.7851
16.5161
17.2054
17.7946
18.2798
18.673
18.9888
19.242
19.4454
19.6098
19.7437
19.854
19.9458
20.0233
20.0897
20.1475
20.1985
16.3187
18.2987
19.961
21.234
22.1805
22.8819
23.4048
23.8005
24.1057
24.3461
24.5396
24.6996
24.8358
24.9555
25.0641
25.1653
25.2622
25.3563
20.7541
25.6365
28.6917
30.5983
31.8392
32.6625
33.2209
33.6166
33.9148
34.1575
34.3724
34.5771
34.7832
34.998
35.2259
35.469
35.7282
36.0024
43.9607
54.4818
58.7066
60.419
60.9733
60.9873
60.8421
60.7507
60.7804
60.9601
61.2992
61.7957
62.4425
63.2293
64.1445
65.1757
66.3082
67.5342
332.627
280.253
240.732
210.193
186.155
166.944
151.391
138.659
128.137
119.37
112.017
105.812
100.55
96.0705
92.2444
88.9684
86.1592
83.7472
0.576862
0.807612
1.07057
1.31181
1.55802
1.8981
2.38244
3.04414
3.9669
5.32269
7.03996
9.05669
11.431
14.2291
17.5526
21.5605
26.5025
32.7723
38.3051
44.1135
50.3564
57.0653
64.2539
71.9333
80.1146
88.809
98.0276
107.782
118.084
128.946
140.379
152.397
165.014
178.242
192.097
206.593
221.747
237.577
254.101
271.339
289.312
308.045
327.562
347.892
369.064
391.112
414.072
437.983
462.888
488.833
515.869
544.05
573.434
604.085
636.07
669.46
704.331
740.763
778.84
818.65
860.282
903.828
949.381
997.037
1046.89
1099.02
1153.52
1210.47
1269.94
1331.98
1396.63
1463.92
1533.86
1606.42
1681.58
1759.29
1839.51
1922.22
2007.51
2095.64
2185.39
2274.92
2363.26
2449.29
2531.75
2609.24
2680.28
2743.36
2797.04
2839.98
2871.01
2889.29
2894.25
2885.71
2863.86
2829.23
2782.68
2725.33
2658.47
2583.54
2502
2415.32
2324.92
2232.11
2138.17
2044.36
1951.52
1861.61
1775.2
1695.83
1628.92
1566.7
1507.04
1449.5
1393.98
1340.46
1288.96
1239.45
1191.92
1146.33
1102.65
1060.82
1020.78
982.487
945.868
910.861
877.4
845.421
814.861
785.656
757.745
731.068
705.569
681.192
657.885
635.597
614.281
593.89
574.382
555.713
537.844
520.738
504.36
488.675
473.652
459.26
445.47
432.256
419.592
407.453
395.816
384.659
373.961
363.703
353.866
344.431
335.382
326.702
318.375
310.387
302.724
295.372
288.317
281.546
275.046
268.804
262.806
257.037
251.484
246.128
240.95
235.926
231.069
226.336
221.675
217.005
212.205
207.036
201.163
192.579
2.09522
1.78732
1.89106
2.21282
2.78428
3.58149
4.56337
5.76475
7.22018
8.95853
10.9856
13.2973
15.8945
18.7829
21.9713
25.4651
29.2538
33.2898
37.448
41.7956
46.3649
51.1686
56.2133
61.5044
67.047
72.8467
78.9089
85.2394
91.8442
98.7295
105.902
113.367
121.133
129.205
137.593
146.302
155.342
164.72
174.446
184.53
194.982
205.812
217.034
228.658
240.701
253.176
266.099
279.487
293.36
307.737
322.638
338.086
354.105
370.719
387.954
405.836
424.393
443.653
463.643
484.392
505.925
528.268
551.447
575.48
600.388
626.183
652.875
680.467
708.953
738.324
768.558
799.628
831.494
864.11
897.423
931.371
965.893
1000.93
1036.42
1072.3
1108.6
1144.4
1179.24
1212.7
1244.34
1273.67
1300.19
1323.41
1342.83
1358.02
1368.6
1374.28
1374.89
1370.36
1360.76
1346.27
1327.19
1303.88
1276.8
1246.46
1213.36
1178.04
1141.01
1102.75
1063.7
1024.24
984.545
944.895
905.737
868.493
833.94
801.216
769.878
739.747
710.754
682.864
656.055
630.305
605.592
581.891
559.176
537.416
516.58
496.638
477.555
459.299
441.836
425.135
409.162
393.886
379.276
365.303
351.938
339.152
326.919
315.214
304.013
293.292
283.028
273.201
263.79
254.777
246.143
237.871
229.943
222.346
215.063
208.081
201.386
194.967
188.81
182.904
177.238
171.803
166.587
161.583
156.78
152.171
147.747
143.501
139.425
135.513
131.757
128.151
124.688
121.364
118.172
115.107
112.162
109.333
106.613
104
101.519
99.156
96.9154
94.8138
92.895
91.278
90.318
91.1622
4.38977
3.35068
3.57917
4.21048
5.03039
6.05162
7.29873
8.7884
10.5317
12.5354
14.8
17.3192
20.0843
23.087
26.3189
29.7701
33.4272
37.2741
41.2982
45.5085
49.9146
54.5229
59.3385
64.3659
69.6095
75.0738
80.7632
86.6823
92.8359
99.2285
105.865
112.75
119.888
127.285
134.945
142.874
151.076
159.558
168.324
177.382
186.736
196.394
206.363
216.65
227.263
238.21
249.5
261.143
273.149
285.527
298.289
311.446
325.009
338.992
353.406
368.263
383.575
399.355
415.612
432.359
449.604
467.354
485.616
504.392
523.685
543.491
563.805
584.618
605.915
627.68
649.889
672.516
695.53
718.894
742.568
766.51
790.67
814.993
839.41
863.934
888.299
912.185
935.34
957.512
978.423
997.772
1015.24
1030.48
1043.17
1053.01
1059.7
1063.05
1062.88
1059.14
1051.83
1041.06
1027.01
1009.92
990.089
967.857
943.582
917.626
890.335
862.034
833.004
803.514
773.673
744.351
715.806
688.387
662.209
637.098
612.907
589.558
567.014
545.26
524.286
504.083
484.639
465.942
447.977
430.725
414.168
398.286
383.056
368.456
354.465
341.058
328.214
315.909
304.123
292.833
282.019
271.659
261.735
252.227
243.117
234.388
226.022
218.004
210.319
202.951
195.886
189.112
182.615
176.384
170.406
164.67
159.167
153.886
148.818
143.953
139.283
134.8
130.495
126.362
122.393
118.581
114.921
111.405
108.027
104.783
101.667
98.6734
95.7975
93.0348
90.3808
87.8311
85.382
83.0296
80.7708
78.6033
76.5334
74.5668
72.7082
70.9736
69.3999
68.0708
67.1886
67.1905
8.00801
5.54402
5.67568
6.31224
7.24264
8.42537
9.85369
11.5275
13.4468
15.6103
18.014
20.6512
23.5137
26.593
29.8813
33.3713
37.0565
40.9323
44.9976
49.2555
53.7105
58.367
63.2288
68.3
73.5844
79.0858
84.808
90.7549
96.9302
103.337
109.98
116.862
123.986
131.356
138.975
146.845
154.97
163.353
171.996
180.904
190.077
199.52
209.235
219.225
229.494
240.044
250.879
262.001
273.415
285.124
297.13
309.439
322.052
334.974
348.208
361.756
375.622
389.807
404.314
419.142
434.293
449.765
465.555
481.662
498.079
514.801
531.818
549.123
566.702
584.544
602.633
620.954
639.489
658.219
677.125
696.184
715.372
734.662
754.013
773.413
792.681
811.659
830.193
848.106
865.193
881.218
895.91
908.974
920.104
928.993
935.358
938.954
939.592
937.155
931.608
922.997
911.447
897.154
880.373
861.4
840.555
818.162
794.533
769.94
744.676
719.008
693.507
668.427
643.925
620.159
597.194
575.002
553.541
532.781
512.708
493.311
474.587
456.527
439.124
422.368
406.247
390.746
375.852
361.546
347.811
334.629
321.981
309.848
298.211
287.052
276.351
266.091
256.253
246.82
237.776
229.105
220.789
212.815
205.167
197.832
190.797
184.048
177.572
171.36
165.398
159.677
154.186
148.915
143.855
138.998
134.334
129.855
125.554
121.423
117.456
113.645
109.984
106.467
103.088
99.8411
96.7217
93.7242
90.844
88.0762
85.4167
82.861
80.4054
78.0461
75.7797
73.603
71.5135
69.5094
67.5921
65.768
64.042
62.4267
60.9486
59.6605
58.6705
58.1424
12.1071
7.83514
7.59479
8.20663
9.21849
10.5176
12.0684
13.8581
15.8806
18.132
20.6082
23.3042
26.215
29.3356
32.6616
36.1896
39.9173
43.8441
47.9708
52.3001
56.8353
61.5798
66.5374
71.7115
77.1058
82.7237
88.5685
94.6434
100.951
107.495
114.278
121.301
128.567
136.077
143.834
151.838
160.091
168.592
177.342
186.342
195.591
205.088
214.834
224.826
235.065
245.547
256.273
267.239
278.443
289.884
301.558
313.463
325.594
337.95
350.526
363.318
376.321
389.531
402.944
416.553
430.353
444.338
458.502
472.838
487.34
502.001
516.815
531.775
546.876
562.114
577.483
592.983
608.611
624.368
640.256
656.278
672.436
688.734
705.176
721.743
738.348
754.912
771.338
787.504
803.246
818.357
832.581
845.621
857.147
866.813
874.28
879.235
881.42
880.65
876.826
869.946
860.099
847.456
832.266
814.831
795.482
774.56
752.409
729.285
705.733
682.058
658.516
635.299
612.547
590.369
568.823
547.924
527.67
508.054
489.072
470.72
452.994
435.888
419.395
403.505
388.207
373.488
359.335
345.731
332.661
320.108
308.055
296.485
285.38
274.723
264.498
254.687
245.274
236.244
227.581
219.269
211.294
203.643
196.302
189.257
182.497
176.01
169.783
163.806
158.069
152.561
147.273
142.196
137.321
132.638
128.142
123.823
119.674
115.688
111.859
108.181
104.646
101.25
97.9864
94.8501
91.836
88.9394
86.1555
83.4799
80.9085
78.4374
76.0627
73.7811
71.5893
69.4846
67.4645
65.5275
63.674
61.9081
60.235
58.6645
57.2159
55.9236
54.8486
54.0571
15.677
9.68946
9.19099
9.78434
10.8506
12.2255
13.8521
15.7078
17.783
20.0731
22.5754
25.288
28.2091
31.3375
34.6722
38.213
41.9603
45.9154
50.0804
54.4582
59.052
63.8653
68.9016
74.1644
79.6571
85.3829
91.345
97.5461
103.989
110.675
117.606
124.784
132.21
139.884
147.806
155.976
164.393
173.056
181.962
191.109
200.495
210.116
219.968
230.047
240.348
250.865
261.593
272.524
283.653
294.972
306.472
318.146
329.985
341.98
354.12
366.397
378.8
391.319
403.944
416.664
429.47
442.352
455.301
468.308
481.367
494.471
507.617
520.802
534.028
547.297
560.618
574
587.46
601.017
614.695
628.522
642.531
656.752
671.245
686.002
701.011
716.251
731.683
747.226
762.758
778.091
792.976
807.097
820.08
831.513
840.97
848.041
852.368
853.671
851.771
846.607
838.241
826.818
812.601
795.93
777.178
756.746
735.07
712.694
689.938
667.073
644.325
621.869
599.832
578.308
557.353
536.995
517.246
498.11
479.587
461.676
444.374
427.673
411.567
396.046
381.098
366.711
352.871
339.563
326.771
314.48
302.674
291.335
280.447
269.993
259.959
250.327
241.082
232.208
223.692
215.519
207.674
200.144
192.917
185.98
179.321
172.928
166.791
160.899
155.241
149.808
144.591
139.581
134.769
130.147
125.707
121.441
117.344
113.407
109.624
105.989
102.496
99.1391
95.913
92.8124
89.8323
86.968
84.2149
81.5687
79.0254
76.5811
74.2322
71.9753
69.8073
67.7256
65.728
63.813
61.9805
60.2333
58.5759
57.0162
55.5683
54.2556
53.1135
52.1703
18.3901
11.135
10.4376
11.0005
12.0886
13.5002
15.1617
17.0432
19.1321
21.4238
23.9174
26.6132
29.5127
32.6173
35.929
39.4498
43.1822
47.1291
51.2934
55.6787
60.2887
65.127
70.1975
75.5038
81.0493
86.8373
92.8707
99.152
105.683
112.466
119.503
126.792
134.336
142.132
150.181
158.48
167.028
175.82
184.855
194.126
203.629
213.359
223.308
233.47
243.836
254.399
265.148
276.074
287.165
298.41
309.796
321.312
332.943
344.676
356.495
368.387
380.337
392.328
404.347
416.379
428.409
440.425
452.414
464.366
476.273
488.128
499.929
511.677
523.378
535.041
546.683
558.327
570.002
581.747
593.607
605.635
617.893
630.446
643.383
656.75
670.593
684.952
699.843
715.243
731.074
747.183
763.33
779.18
794.308
808.216
820.369
830.224
837.289
841.159
841.547
838.31
831.5
821.204
807.713
791.451
772.83
752.547
731.053
708.852
686.262
663.567
640.998
618.726
596.872
575.522
554.729
534.523
514.92
495.925
477.54
459.763
442.59
426.014
410.027
394.618
379.776
365.488
351.74
338.516
325.802
313.581
301.838
290.557
279.72
269.313
259.32
249.724
240.51
231.665
223.172
215.019
207.192
199.677
192.463
185.536
178.885
172.498
166.366
160.477
154.822
149.391
144.174
139.163
134.35
129.726
125.284
121.016
116.915
112.975
109.188
105.549
102.052
98.6913
95.4608
92.3558
89.3712
86.5024
83.7448
81.0941
78.5463
76.0977
73.7445
71.4835
69.3118
67.2267
65.226
63.3083
61.4735
59.7232
58.0612
56.4937
55.0312
53.6895
52.4896
51.4439
20.4088
12.2028
11.3374
11.8511
12.9271
14.3372
15.9959
17.8672
19.9364
22.1985
24.6537
27.3039
30.1525
33.2031
36.4593
39.9252
43.6045
47.5013
51.6198
55.9642
60.5388
65.3478
70.3953
75.6854
81.2217
87.0075
93.0459
99.3395
105.89
112.699
119.768
127.096
134.684
142.53
150.632
158.989
167.595
176.448
185.543
194.873
204.432
214.213
224.206
234.403
244.794
255.367
266.11
277.01
288.053
299.224
310.508
321.888
333.347
344.866
356.428
368.013
379.601
391.174
402.712
414.196
425.607
436.929
448.145
459.242
470.21
481.039
491.727
502.274
512.687
522.982
533.178
543.307
553.41
563.539
573.758
584.144
594.785
605.781
617.253
629.303
642.038
655.562
669.962
685.288
701.531
718.593
736.267
754.212
771.954
788.903
804.385
817.69
828.146
835.183
838.382
837.372
832.147
822.92
810.04
794.177
775.868
755.713
734.235
711.908
689.12
666.225
643.495
621.092
599.14
577.716
556.866
536.617
516.979
497.956
479.549
461.753
444.563
427.971
411.967
396.54
381.679
367.369
353.596
340.346
327.603
315.351
303.575
292.258
281.385
270.939
260.905
251.267
242.012
233.123
224.587
216.39
208.519
200.96
193.701
186.73
180.036
173.607
167.432
161.502
155.806
150.334
145.078
140.029
135.178
130.518
126.04
121.737
117.603
113.63
109.811
106.141
102.614
99.224
95.9653
92.8328
89.8216
86.9271
84.1445
81.4698
78.8988
76.4276
74.0529
71.7712
69.5797
67.4756
65.457
63.5224
61.6713
59.9049
58.2262
56.6397
55.1534
53.7778
52.5252
51.4009
21.7172
12.9048
11.9066
12.3567
13.3902
14.7641
16.3852
18.2137
20.2329
22.4371
24.8266
27.404
30.1737
33.1403
36.3087
39.6839
43.271
47.0748
51.1005
55.3531
59.8375
64.5585
69.5207
74.7287
80.1863
85.8973
91.8649
98.0918
104.58
111.331
118.346
125.625
133.168
140.973
149.037
157.358
165.933
174.756
183.821
193.122
202.652
212.401
222.36
232.519
242.865
253.385
264.066
274.892
285.848
296.916
308.077
319.312
330.602
341.924
353.258
364.579
375.866
387.094
398.24
409.282
420.195
430.958
441.552
451.957
462.16
472.146
481.91
491.449
500.769
509.881
518.808
527.584
536.254
544.879
553.536
562.319
571.341
580.731
590.645
601.238
612.677
625.141
638.802
653.806
670.245
688.116
707.283
727.432
748.061
768.487
787.882
805.318
819.888
830.716
836.995
838.383
834.902
826.934
815.004
799.765
781.857
761.902
740.465
718.045
695.068
671.897
648.833
626.143
603.959
582.353
561.359
540.99
521.25
502.137
483.647
465.774
448.509
431.843
415.766
400.266
385.33
370.944
357.096
343.768
330.947
318.615
306.759
295.362
284.407
273.88
263.765
254.047
244.711
235.743
227.128
218.854
210.906
203.271
195.939
188.895
182.13
175.631
169.389
163.392
157.631
152.097
146.78
141.672
136.763
132.047
127.515
123.159
118.974
114.951
111.085
107.369
103.797
100.363
97.0623
93.8892
90.8388
87.9062
85.0869
82.3767
79.7714
77.2673
74.8608
72.5485
70.3276
68.1955
66.1501
64.1898
62.3142
60.5237
58.8206
57.2083
55.6924
54.2799
52.9775
51.7877
22.3407
13.2628
12.1728
12.552
13.5197
14.8285
16.3825
18.1398
20.082
22.2025
24.5007
26.9795
29.643
32.4963
35.545
38.7947
42.251
45.9197
49.8065
53.9171
58.2569
62.8314
67.6457
72.7047
78.0129
83.5743
89.3926
95.4707
101.811
108.416
115.286
122.422
129.823
137.487
145.414
153.6
162.041
170.732
179.668
188.841
198.243
207.865
217.697
227.727
237.944
248.332
258.877
269.562
280.371
291.284
302.28
313.34
324.44
335.556
346.665
357.741
368.757
379.687
390.503
401.179
411.687
422.001
432.096
441.948
451.537
460.844
469.857
478.566
486.972
495.08
502.908
510.485
517.855
525.079
532.238
539.436
546.8
554.486
562.674
571.563
581.38
592.379
604.83
618.999
635.115
653.323
673.62
695.785
719.32
743.481
767.282
789.528
808.83
823.837
833.577
837.729
836.44
830.153
819.481
805.133
787.825
768.236
746.983
724.606
701.565
678.246
654.968
631.998
609.557
587.76
566.625
546.146
526.316
507.124
488.559
470.613
453.275
436.535
420.382
404.803
389.785
375.315
361.379
347.963
335.05
322.627
310.677
299.184
288.135
277.512
267.302
257.488
248.058
238.996
230.289
221.922
213.884
206.161
198.742
191.613
184.764
178.184
171.862
165.788
159.952
154.344
148.955
143.777
138.801
134.02
129.424
125.007
120.762
116.681
112.759
108.988
105.364
101.879
98.5292
95.3084
92.2118
89.2346
86.3723
83.6204
80.9749
78.4319
75.9879
73.6396
71.384
69.2186
67.1411
65.1502
63.2449
61.4255
59.6934
58.051
56.5021
55.051
53.701
52.4536
22.3367
13.3098
12.172
12.4812
13.3684
14.5914
16.0556
17.7186
19.5611
21.5751
23.7592
26.1152
28.6471
31.3598
34.2589
37.3503
40.64
44.1343
47.8393
51.7611
55.9056
60.2786
64.8858
69.7325
74.8237
80.1639
85.7572
91.6071
97.7167
104.088
110.723
117.623
124.786
132.214
139.903
147.852
156.057
164.514
173.215
182.156
191.328
200.722
210.328
220.135
230.128
240.296
250.621
261.087
271.676
282.369
293.144
303.979
314.851
325.733
336.601
347.427
358.181
368.835
379.36
389.723
399.895
409.844
419.542
428.959
438.067
446.844
455.268
463.322
470.997
478.291
485.21
491.774
498.016
503.99
509.77
515.457
521.183
527.116
533.448
540.406
548.259
557.328
567.977
580.606
595.615
613.357
634.048
657.666
683.778
711.638
740.156
767.784
792.155
811.7
825.419
832.931
834.368
830.217
821.176
808.04
791.608
772.638
751.805
729.698
706.81
683.554
660.267
637.223
614.651
592.738
571.541
551.031
531.182
511.975
493.395
475.428
458.063
441.289
425.093
409.465
394.391
379.859
365.855
352.366
339.376
326.871
314.836
303.257
292.118
281.405
271.103
261.198
251.675
242.52
233.721
225.263
217.134
209.322
201.814
194.599
187.665
181.002
174.598
168.444
162.53
156.846
151.384
146.133
141.087
136.237
131.575
127.094
122.786
118.645
114.664
110.836
107.157
103.618
100.216
96.9451
93.7998
90.7753
87.8671
85.071
82.3826
79.7982
77.3142
74.9272
72.6344
70.433
68.321
66.2967
64.3591
62.5081
60.7444
59.0694
57.4857
55.9954
54.5999
53.3004
21.7674
13.0844
11.9458
12.1938
12.9952
14.1207
15.4803
17.0326
18.7579
20.6471
22.6977
24.9105
27.2888
29.837
32.5606
35.4653
38.5575
41.8433
45.3293
49.0219
52.927
57.0505
61.3986
65.977
70.7912
75.8462
81.1467
86.6969
92.5002
98.5596
104.877
111.455
118.294
125.393
132.752
140.369
148.241
156.364
164.734
173.344
182.187
191.255
200.537
210.024
219.702
229.559
239.578
249.743
260.036
270.437
280.926
291.479
302.073
312.681
323.277
333.832
344.317
354.7
364.95
375.033
384.916
394.564
403.945
413.025
421.77
430.151
438.139
445.711
452.845
459.529
465.757
471.536
476.884
481.838
486.456
490.825
495.068
499.349
503.856
508.814
514.506
521.289
529.598
539.951
552.928
569.125
589.081
613.191
641.097
672.167
705.205
737.945
767.68
792.365
810.711
822.188
826.89
825.35
818.356
806.805
791.597
773.571
753.471
731.933
709.49
686.577
663.55
640.693
618.242
596.386
575.274
554.865
535.118
516.004
497.504
479.603
462.288
445.548
429.373
413.751
398.671
384.121
370.09
356.563
343.528
330.971
318.879
307.236
296.029
285.245
274.868
264.886
255.284
246.05
237.17
228.631
220.422
212.528
204.94
197.645
190.632
183.891
177.411
171.182
165.194
159.438
153.904
148.585
143.471
138.556
133.829
129.286
124.917
120.716
116.678
112.794
109.06
105.469
102.015
98.6941
95.5003
92.4288
89.475
86.6346
83.9033
81.2773
78.753
76.327
73.9964
71.7586
69.6112
67.5527
65.5819
63.6982
61.9017
60.1932
58.574
57.045
55.6061
54.2588
20.6846
12.6282
11.5394
11.7424
12.4617
13.487
14.7352
16.1674
17.764
19.5157
21.4187
23.4731
25.6812
28.047
30.5753
33.2717
36.1422
39.1933
42.4318
45.865
49.4983
53.3355
57.3837
61.6495
66.1388
70.8573
75.8101
81.0019
86.4371
92.1191
98.0512
104.236
110.674
117.368
124.317
131.52
138.975
146.68
154.631
162.822
171.248
179.902
188.774
197.854
207.132
216.594
226.226
236.013
245.936
255.976
266.114
276.327
286.591
296.881
307.168
317.426
327.623
337.728
347.707
357.527
367.152
376.547
385.674
394.496
402.978
411.083
418.778
426.03
432.812
439.1
444.877
450.135
454.877
459.121
462.906
466.295
469.39
472.336
475.304
478.488
482.143
486.617
492.362
499.96
510.124
523.677
541.461
564.184
592.115
624.971
661.682
699.267
734.508
764.755
788.269
804.265
812.757
814.312
809.811
800.262
786.67
769.965
750.961
730.345
708.685
686.442
663.986
641.615
619.569
598.044
577.213
557.081
537.59
518.707
500.41
482.684
465.518
448.902
432.827
417.285
402.266
387.76
373.756
360.243
347.209
334.642
322.529
310.858
299.616
288.79
278.366
268.332
258.675
249.382
240.441
231.839
223.565
215.606
207.952
200.59
193.511
186.703
180.157
173.862
167.81
161.99
156.393
151.012
145.838
140.862
136.078
131.477
127.052
122.797
118.705
114.77
110.984
107.344
103.842
100.474
97.2347
94.1187
91.1215
88.2389
85.4666
82.8007
80.2376
77.774
75.4068
73.1334
70.9515
68.8594
66.8556
64.9394
63.1103
61.3684
59.7142
58.1478
56.6679
55.2766
19.2367
12.0119
11.0098
11.1842
11.8311
12.7606
13.8979
15.2077
16.6715
18.2798
20.0285
21.9169
23.9466
26.1205
28.443
30.919
33.5541
36.3542
39.3255
42.4743
45.8066
49.3281
53.0454
56.9648
61.0926
65.4347
69.9969
74.7845
79.8025
85.0552
90.5467
96.2803
102.259
108.484
114.957
121.679
128.649
135.865
143.325
151.025
158.961
167.127
175.515
184.117
192.922
201.92
211.098
220.44
229.93
239.551
249.284
259.106
268.996
278.927
288.875
298.81
308.703
318.523
328.236
337.808
347.203
356.384
365.313
373.952
382.262
390.204
397.739
404.833
411.449
417.558
423.134
428.158
432.621
436.523
439.885
442.75
445.196
447.336
449.32
451.285
453.424
456.019
459.458
464.279
471.194
481.12
495.15
514.441
539.997
572.363
610.902
652.305
692.703
728.626
757.663
778.632
791.387
796.495
794.924
787.794
776.222
761.229
743.7
724.374
703.854
682.623
661.066
639.492
618.147
597.235
576.933
557.282
538.223
519.725
501.769
484.342
467.436
451.046
435.165
419.788
404.907
390.515
376.603
363.164
350.186
337.66
325.575
313.919
302.682
291.851
281.414
271.361
261.678
252.354
243.378
234.737
226.42
218.417
210.715
203.305
196.176
189.318
182.72
176.374
170.27
164.398
158.75
153.318
148.093
143.067
138.233
133.583
129.11
124.808
120.67
116.688
112.859
109.174
105.63
102.22
98.9391
95.7828
92.7464
89.8254
87.0156
84.3131
81.7142
79.2157
76.8144
74.5077
72.2933
70.1692
68.134
66.1865
64.3258
62.5517
60.864
59.2619
57.7439
56.3123
17.5906
11.2959
10.4056
10.5655
11.1504
11.9906
13.0202
14.2076
15.5365
16.998
18.5879
20.3048
22.1498
24.1249
26.2337
28.4803
30.8697
33.4071
36.0982
38.9489
41.9651
45.1531
48.5193
52.07
55.8117
59.7508
63.8935
68.2456
72.8128
77.6005
82.6134
87.8561
93.3324
99.0454
104.998
111.191
117.627
124.305
131.225
138.383
145.778
153.405
161.259
169.333
177.618
186.104
194.781
203.636
212.653
221.817
231.11
240.512
250.002
259.556
269.149
278.754
288.343
297.885
307.348
316.698
325.901
334.92
343.716
352.252
360.488
368.384
375.901
383.001
389.647
395.804
401.443
406.538
411.073
415.04
418.446
421.322
423.726
425.751
427.516
429.094
430.605
432.229
434.228
436.979
441.022
447.129
456.379
470.216
490.426
518.879
556.126
599.205
643.626
684.839
719.454
745.659
763.018
772.043
773.764
769.412
760.214
747.285
731.579
713.885
694.836
674.939
654.592
634.111
613.75
593.719
574.201
555.24
536.793
518.837
501.361
484.359
467.829
451.77
436.179
421.055
406.394
392.192
378.444
365.143
352.282
339.853
327.848
316.256
305.069
294.276
283.866
273.83
264.156
254.833
245.852
237.2
228.868
220.845
213.12
205.683
198.525
191.636
185.005
178.624
172.484
166.576
160.891
155.42
150.157
145.093
140.221
135.533
131.022
126.682
122.506
118.488
114.622
110.901
107.321
103.875
100.56
97.3693
94.2991
91.3449
88.5024
85.7678
83.1374
80.6079
78.1762
75.8395
73.5955
71.4422
69.378
67.4014
65.5113
63.707
61.9878
60.3526
58.7995
57.3314
15.7411
10.4742
9.73183
9.8968
10.4336
11.195
12.124
13.1941
14.3911
15.7076
17.1395
18.6854
20.3456
22.1215
24.0159
26.0321
28.1743
30.4471
32.8558
35.4057
38.1028
40.9532
43.9631
47.1391
50.4879
54.0161
57.7304
61.6373
65.7431
70.0541
74.5761
79.3146
84.2748
89.4611
94.8776
100.528
106.414
112.538
118.901
125.502
132.341
139.415
146.721
154.254
162.007
169.972
178.141
186.502
195.044
203.75
212.606
221.593
230.692
239.882
249.138
258.437
267.751
277.052
286.31
295.492
304.566
313.495
322.246
330.78
339.059
347.047
354.704
361.994
368.881
375.331
381.317
386.812
391.799
396.269
400.231
403.711
406.758
409.475
411.919
414.122
416.136
418.038
419.936
421.974
424.371
427.48
431.954
439.038
450.975
471.168
502.627
543.847
590.106
635.537
675.345
706.746
728.821
741.935
747.149
745.794
739.205
728.587
714.961
699.161
681.85
663.549
644.669
625.532
606.397
587.48
568.967
550.882
533.208
515.938
499.072
482.614
466.569
450.941
435.734
420.95
406.591
392.655
379.141
366.045
353.363
341.09
329.219
317.743
306.655
295.945
285.605
275.626
265.998
256.713
247.759
239.128
230.81
222.795
215.073
207.635
200.471
193.572
186.93
180.534
174.377
168.45
162.744
157.252
151.966
146.878
141.98
137.267
132.73
128.363
124.161
120.115
116.222
112.474
108.866
105.393
102.051
98.8332
95.7361
92.7551
89.886
87.125
84.4683
81.9128
79.4551
77.0927
74.8231
72.6442
70.5542
68.5516
66.6348
64.8029
63.0551
61.3899
59.8053
58.3045
13.8145
9.56616
8.99815
9.18757
9.69207
10.3884
11.2293
12.193
13.2683
14.4489
15.7316
17.115
18.5989
20.1844
21.8736
23.6692
25.5748
27.5946
29.7331
31.9957
34.388
36.916
39.586
42.4046
45.3788
48.5156
51.822
55.3053
58.9726
62.8308
66.887
71.1477
75.6192
80.3076
85.2182
90.356
95.7252
101.329
107.171
113.253
119.574
126.135
132.934
139.969
147.235
154.726
162.435
170.353
178.469
186.772
195.246
203.877
212.647
221.537
230.525
239.589
248.705
257.846
266.985
276.093
285.139
294.092
302.919
311.587
320.062
328.31
336.297
343.992
351.364
358.386
365.035
371.294
377.153
382.614
387.697
392.443
396.903
401.169
405.245
409.134
412.835
416.327
419.545
422.362
424.574
425.933
426.338
426.319
427.959
435.808
456.328
491.075
536.02
583.913
628.053
664.244
690.832
707.924
716.579
718.216
714.276
706.05
694.618
680.85
665.432
648.897
631.659
614.044
596.314
578.689
561.338
544.271
527.497
511.029
494.882
479.069
463.603
448.496
433.758
419.395
405.412
391.814
378.602
365.776
353.335
341.275
329.594
318.285
307.344
296.763
286.537
276.657
267.116
257.904
249.015
240.438
232.165
224.188
216.498
209.085
201.941
195.058
188.426
182.037
175.884
169.957
164.249
158.753
153.46
148.364
143.456
138.732
134.182
129.802
125.584
121.524
117.614
113.849
110.224
106.733
103.372
100.136
97.0196
94.0193
91.1306
88.3497
85.673
83.0972
80.6191
78.236
75.9455
73.7453
71.6335
69.6085
67.6685
65.8126
64.0395
62.3479
60.7356
59.2061
11.9425
8.60791
8.22326
8.45525
8.94679
9.59814
10.3713
11.2492
12.2231
13.2883
14.4422
15.6838
17.0131
18.4311
19.9397
21.5414
23.2394
25.0379
26.9413
28.9548
31.0839
33.3347
35.7138
38.228
40.8846
43.6909
46.6547
49.7838
53.086
56.5692
60.2414
64.1102
68.1832
72.4676
76.9701
81.6972
86.6546
91.8475
97.28
102.956
108.877
115.045
121.46
128.122
135.026
142.171
149.549
157.154
164.977
173.008
181.235
189.644
198.219
206.944
215.801
224.769
233.827
242.953
252.122
261.308
270.487
279.63
288.711
297.701
306.574
315.303
323.863
332.23
340.386
348.315
356.009
363.466
370.696
377.727
384.61
391.403
398.148
404.854
411.513
418.096
424.523
430.628
436.106
440.46
442.968
442.716
438.836
431.135
421.313
414.566
420.2
444.246
484.681
533.139