/*--------------------------------*- C++ -*----------------------------------*\
| =========                 |                                                 |
| \\      /  F ield         | OpenFOAM: The Open Source CFD Toolbox           |
|  \\    /   O peration     | Version:  1.4.2                                 |
|   \\  /    A nd           | Web:      http://www.openfoam.org               |
|    \\/     M anipulation  |                                                 |
\*---------------------------------------------------------------------------*/
FoamFile
{
    version     2.0;
    format      ascii;
    class       volScalarField;
    object      k;
    location    "400";
}
// * * * * * * * * * * * * * * * * * * * * * * * * * * * * * * * * * * * * * //

dimensions      [0 2 -2 0 0 0 0];

internalField   nonuniform List<scalar> 
12225
(
0.315115
0.271063
0.237884
0.212503
0.192897
0.177686
0.165899
0.156838
0.149981
0.144936
0.141398
0.139124
0.137918
0.137616
0.13808
0.139191
0.140845
0.143149
0.365358
0.357609
0.353826
0.353683
0.356732
0.36261
0.370993
0.381587
0.394121
0.408348
0.424029
0.440937
0.458849
0.477545
0.496811
0.516425
0.536089
0.556366
0.370187
0.364635
0.360182
0.356897
0.354766
0.353739
0.353744
0.354698
0.356517
0.35912
0.362425
0.366352
0.370821
0.375748
0.381038
0.386568
0.392156
0.397663
0.371735
0.367476
0.363486
0.359995
0.357013
0.354543
0.352572
0.35107
0.350002
0.349329
0.349013
0.349014
0.349294
0.349811
0.350523
0.351378
0.352317
0.353304
0.372438
0.369047
0.365586
0.362323
0.35933
0.356625
0.354211
0.352075
0.350202
0.348575
0.347172
0.345974
0.344958
0.344101
0.34338
0.342772
0.342253
0.341814
0.372749
0.369941
0.366988
0.364053
0.361243
0.358601
0.356144
0.353874
0.351787
0.349872
0.348119
0.346516
0.345051
0.343711
0.342482
0.341352
0.340311
0.339362
0.372878
0.370408
0.367849
0.365262
0.362713
0.360246
0.357889
0.355658
0.353558
0.351588
0.349743
0.348018
0.346404
0.344893
0.343478
0.342152
0.340909
0.339764
0.372918
0.370597
0.368254
0.365899
0.363566
0.361282
0.359069
0.356943
0.354914
0.352985
0.351157
0.349428
0.347794
0.34625
0.344791
0.343412
0.34211
0.340903
0.372932
0.370686
0.368469
0.36627
0.364099
0.361969
0.359894
0.357884
0.355948
0.354091
0.352317
0.350625
0.349014
0.347481
0.346024
0.344638
0.343323
0.342097
0.372936
0.370729
0.368592
0.366504
0.364462
0.362468
0.360526
0.35864
0.356815
0.355056
0.353365
0.351742
0.350187
0.3487
0.347278
0.345919
0.344623
0.34341
0.372936
0.370745
0.368649
0.366629
0.364676
0.362784
0.360951
0.359175
0.357459
0.355801
0.354203
0.352666
0.351187
0.349767
0.348404
0.347097
0.345846
0.344672
0.372935
0.370747
0.368667
0.366681
0.364778
0.362951
0.361192
0.359499
0.357868
0.356297
0.354784
0.353328
0.351928
0.350581
0.349286
0.348041
0.346849
0.345728
0.372935
0.370744
0.368668
0.366694
0.364813
0.363018
0.361301
0.359657
0.358081
0.35657
0.35512
0.353727
0.35239
0.351105
0.349871
0.348686
0.347551
0.346484
0.372936
0.370742
0.368664
0.366691
0.364816
0.363032
0.361332
0.359711
0.358163
0.356684
0.35527
0.353916
0.352619
0.351377
0.350186
0.349045
0.347955
0.346931
0.372938
0.370741
0.36866
0.366685
0.364809
0.363027
0.361331
0.359716
0.358178
0.356711
0.355312
0.353975
0.352698
0.351478
0.35031
0.349194
0.34813
0.347134
0.372942
0.370743
0.368659
0.366682
0.364803
0.363018
0.361321
0.359706
0.358169
0.356704
0.355308
0.353977
0.352706
0.351493
0.350335
0.349229
0.348176
0.347192
0.372947
0.370748
0.368662
0.366682
0.364801
0.363014
0.361314
0.359697
0.358158
0.356692
0.355295
0.353963
0.352692
0.35148
0.350323
0.34922
0.34817
0.347189
0.372951
0.370752
0.368665
0.366683
0.364801
0.363012
0.361311
0.359692
0.358151
0.356683
0.355284
0.35395
0.352677
0.351463
0.350304
0.349199
0.348148
0.347166
0.372948
0.370749
0.368662
0.366681
0.364799
0.363009
0.361307
0.359686
0.358143
0.356671
0.355268
0.35393
0.352652
0.351433
0.350267
0.349155
0.348097
0.347106
0.372943
0.370744
0.368658
0.366677
0.364794
0.363002
0.361295
0.359669
0.358117
0.356636
0.355221
0.353868
0.352575
0.351338
0.350154
0.349022
0.347943
0.346932
0.372939
0.37074
0.368653
0.366668
0.364778
0.362974
0.361251
0.359604
0.358026
0.356515
0.355066
0.353676
0.352343
0.351063
0.349836
0.348659
0.347534
0.346477
0.372934
0.370733
0.368638
0.366636
0.364717
0.362875
0.361104
0.359398
0.357756
0.356173
0.354649
0.353181
0.351767
0.350407
0.349099
0.347843
0.346641
0.34551
0.372928
0.370711
0.368582
0.366524
0.364527
0.362588
0.360705
0.358877
0.357106
0.355392
0.353735
0.352138
0.350599
0.349118
0.347695
0.34633
0.345025
0.3438
0.37291
0.37064
0.368411
0.366209
0.364037
0.361902
0.359814
0.357779
0.355806
0.353898
0.352061
0.350295
0.348602
0.346981
0.345431
0.343951
0.342544
0.341227
0.372856
0.370431
0.36796
0.365461
0.362971
0.360519
0.358127
0.355813
0.353589
0.35146
0.349428
0.347494
0.345656
0.343912
0.342257
0.34069
0.339209
0.337832
0.372694
0.369885
0.366928
0.363924
0.360965
0.358096
0.355345
0.352729
0.350253
0.347918
0.345723
0.343662
0.34173
0.339921
0.338227
0.336643
0.335164
0.333802
0.37223
0.368601
0.364819
0.361099
0.357541
0.354188
0.351063
0.348168
0.345501
0.343052
0.340811
0.338766
0.336903
0.335209
0.333671
0.332276
0.331013
0.329885
0.370947
0.365686
0.360551
0.355802
0.351491
0.347646
0.344268
0.341336
0.33882
0.336684
0.334893
0.333413
0.332213
0.331263
0.330537
0.330007
0.329653
0.329461
0.366354
0.35712
0.349252
0.342901
0.337991
0.334396
0.331969
0.330555
0.330014
0.330224
0.331078
0.332484
0.334362
0.336641
0.339261
0.342166
0.345305
0.348671
0.329178
0.293648
0.265348
0.242404
0.223551
0.207893
0.194772
0.183692
0.174278
0.166236
0.159336
0.153396
0.148268
0.143831
0.139987
0.136652
0.13376
0.131252
0.00839702
0.0110099
0.013289
0.0152182
0.0170598
0.0194288
0.0225813
0.0265571
0.0316346
0.038403
0.0462727
0.0547237
0.063899
0.0739264
0.0850108
0.0974792
0.111829
0.128804
0.142903
0.156983
0.171435
0.186306
0.201599
0.217309
0.233433
0.249968
0.26691
0.284258
0.302009
0.320162
0.338716
0.357672
0.377029
0.396788
0.416952
0.437522
0.458504
0.4799
0.501716
0.52396
0.54664
0.569765
0.593346
0.617397
0.641932
0.666968
0.692523
0.718618
0.745275
0.77252
0.800379
0.828881
0.858057
0.88794
0.918565
0.949969
0.982189
1.01526
1.04923
1.08414
1.12002
1.1569
1.19484
1.23387
1.274
1.31528
1.35772
1.40135
1.44615
1.49214
1.53929
1.58758
1.63698
1.68744
1.73889
1.79126
1.84449
1.89854
1.95339
2.00918
2.06558
2.1211
2.17524
2.22737
2.27683
2.3229
2.36481
2.4018
2.43313
2.45812
2.47619
2.48687
2.48988
2.48509
2.47255
2.45249
2.42531
2.39153
2.35179
2.30678
2.25725
2.20396
2.14766
2.08908
2.02892
1.96788
1.90655
1.84621
1.78689
1.73123
1.68324
1.6386
1.5954
1.55323
1.51205
1.47186
1.43269
1.39457
1.3575
1.32151
1.28659
1.25273
1.21992
1.18815
1.15739
1.12763
1.09884
1.07099
1.04406
1.01801
0.992829
0.968478
0.944932
0.922163
0.900145
0.878852
0.858259
0.83834
0.819073
0.800434
0.782401
0.764954
0.748071
0.731734
0.715923
0.70062
0.685809
0.671472
0.657594
0.644158
0.631152
0.618561
0.606372
0.594572
0.583148
0.572089
0.561384
0.551021
0.54099
0.531279
0.52188
0.512782
0.503975
0.495449
0.487194
0.479199
0.471451
0.463939
0.456646
0.449557
0.44265
0.435899
0.42932
0.422867
0.416472
0.410038
0.403408
0.396274
0.388193
0.376529
0.0124911
0.0215033
0.0285716
0.035377
0.0433435
0.0521551
0.0614378
0.0716386
0.0830363
0.095783
0.109877
0.125191
0.141588
0.158972
0.177286
0.196486
0.216499
0.237177
0.258216
0.27978
0.301937
0.324703
0.348082
0.372077
0.396687
0.421913
0.447754
0.47421
0.501281
0.528967
0.557266
0.586181
0.615711
0.645858
0.676624
0.708012
0.740026
0.772671
0.805954
0.839885
0.874473
0.909731
0.945676
0.982324
1.0197
1.05782
1.09673
1.13645
1.17701
1.21847
1.26086
1.30425
1.34868
1.39421
1.44093
1.48889
1.53819
1.58889
1.6411
1.69492
1.75043
1.80774
1.86697
1.92821
1.99159
2.05722
2.1252
2.19565
2.26867
2.34435
2.42278
2.50403
2.58815
2.67518
2.7651
2.85787
2.95342
3.05159
3.15218
3.25486
3.35806
3.46165
3.56496
3.66706
3.76687
3.8631
3.95434
4.03903
4.11559
4.18241
4.238
4.28103
4.31046
4.32555
4.32596
4.31172
4.28327
4.24135
4.18699
4.12144
4.04606
3.9623
3.87161
3.77544
3.67527
3.57252
3.46864
3.36504
3.26405
3.16792
3.07611
2.98688
2.89961
2.8142
2.73075
2.64938
2.57019
2.49327
2.41865
2.34636
2.2764
2.20875
2.14336
2.08021
2.01922
1.96035
1.90354
1.8487
1.79579
1.74472
1.69543
1.64786
1.60194
1.55761
1.51481
1.47347
1.43354
1.39497
1.3577
1.32168
1.28687
1.25321
1.22067
1.1892
1.15877
1.12932
1.10084
1.07327
1.0466
1.02079
0.995799
0.971611
0.948196
0.925526
0.903576
0.882323
0.861742
0.841811
0.82251
0.803817
0.785713
0.768178
0.751193
0.73474
0.718801
0.703357
0.68839
0.673879
0.659807
0.646149
0.632883
0.619973
0.607334
0.594993
0.582884
0.570923
0.559007
0.547012
0.535165
0.524481
0.0204314
0.0377832
0.051288
0.064011
0.0757643
0.087586
0.100212
0.114044
0.129277
0.145985
0.164148
0.183665
0.204402
0.226241
0.249092
0.272879
0.297533
0.322993
0.349215
0.37621
0.403992
0.432568
0.461942
0.492114
0.523088
0.554864
0.587443
0.620827
0.655014
0.690006
0.725803
0.762403
0.799807
0.838015
0.877028
0.916845
0.95747
0.998903
1.04115
1.08421
1.1281
1.17282
1.21839
1.26481
1.31211
1.3603
1.40941
1.45947
1.51051
1.56256
1.61568
1.66991
1.7253
1.78191
1.83982
1.8991
1.95982
2.02208
2.08598
2.15161
2.21909
2.28852
2.36004
2.43377
2.50983
2.58836
2.6695
2.75337
2.84013
2.92988
3.02276
3.11888
3.21834
3.3212
3.42753
3.53734
3.65059
3.76721
3.88708
4.00927
4.13334
4.25887
4.38514
4.51119
4.63578
4.75743
4.8744
4.98476
5.08638
5.1771
5.25478
5.31747
5.36355
5.39178
5.40148
5.39248
5.36517
5.3204
5.25944
5.18387
5.09544
4.99603
4.88753
4.77172
4.65049
4.52526
4.39681
4.26815
4.14104
4.01634
3.89476
3.77599
3.66003
3.54697
3.43696
3.3301
3.22649
3.12616
3.02914
2.9354
2.8449
2.75758
2.67338
2.5922
2.51395
2.43854
2.36587
2.29585
2.22835
2.1633
2.1006
2.04014
1.98184
1.9256
1.87135
1.81901
1.76849
1.71971
1.67262
1.62714
1.5832
1.54075
1.49972
1.46007
1.42173
1.38466
1.34881
1.31413
1.28059
1.24813
1.21672
1.18632
1.1569
1.12843
1.10086
1.07417
1.04832
1.0233
0.999069
0.975602
0.952875
0.930863
0.909542
0.888889
0.868881
0.849495
0.830709
0.8125
0.794845
0.777719
0.761096
0.744943
0.729208
0.713874
0.69891
0.684272
0.669934
0.655937
0.642688
0.631524
0.0305007
0.057422
0.0769269
0.0925759
0.106911
0.121307
0.136545
0.153046
0.171012
0.190511
0.211524
0.233978
0.257778
0.28283
0.309054
0.336387
0.364778
0.394194
0.424614
0.456034
0.488457
0.521886
0.556322
0.591768
0.628226
0.665698
0.704185
0.743686
0.784202
0.825733
0.868275
0.911827
0.956387
1.00195
1.04851
1.09607
1.14462
1.19415
1.24466
1.29616
1.34863
1.40207
1.45649
1.51189
1.56826
1.62562
1.68397
1.74334
1.80372
1.86515
1.92766
1.99126
2.05601
2.12193
2.18909
2.25754
2.32735
2.39858
2.47132
2.54566
2.62169
2.69953
2.77929
2.86108
2.94506
3.03134
3.12009
3.21145
3.30558
3.40264
3.5028
3.60622
3.71306
3.82345
3.93753
4.0554
4.17714
4.30276
4.43221
4.5648
4.70046
4.83882
4.97924
5.12082
5.26233
5.4022
5.53848
5.66893
5.79097
5.90188
5.99889
6.07939
6.14109
6.18223
6.20166
6.19896
6.17442
6.12893
6.06396
5.98133
5.88314
5.7716
5.64894
5.5172
5.37836
5.23397
5.0872
4.93971
4.79316
4.64857
4.50663
4.36762
4.23178
4.09936
3.97056
3.84552
3.72434
3.60707
3.49373
3.38427
3.27866
3.17682
3.07866
2.98407
2.89294
2.80515
2.7206
2.63914
2.56068
2.48508
2.41223
2.34202
2.27434
2.20909
2.14616
2.08545
2.02688
1.97036
1.9158
1.86312
1.81224
1.7631
1.71562
1.66973
1.62539
1.58252
1.54106
1.50098
1.46221
1.4247
1.38842
1.35331
1.31933
1.28645
1.25462
1.22381
1.19399
1.16511
1.13716
1.11008
1.08387
1.05848
1.0339
1.01009
0.987021
0.964679
0.943033
0.922059
0.901733
0.882027
0.862917
0.844373
0.826365
0.808861
0.791863
0.775364
0.75941
0.744154
0.730042
0.718224
0.0402
0.0756718
0.0991039
0.117884
0.134917
0.151716
0.169157
0.187739
0.20772
0.229215
0.252243
0.276778
0.302768
0.330154
0.358885
0.388918
0.420219
0.452766
0.486546
0.521553
0.557788
0.595251
0.633946
0.673874
0.715037
0.757437
0.801075
0.84595
0.89206
0.939403
0.987975
1.03777
1.08878
1.14099
1.1944
1.249
1.30476
1.36168
1.41975
1.47894
1.53925
1.60065
1.66313
1.72667
1.79126
1.85689
1.92355
1.99122
2.05989
2.12957
2.20026
2.27195
2.34467
2.41841
2.49322
2.5691
2.64611
2.72428
2.80366
2.88434
2.96637
3.04984
3.13486
3.22154
3.31
3.40037
3.49282
3.58751
3.68463
3.78436
3.88693
3.99254
4.10144
4.21385
4.33002
4.45017
4.57451
4.70322
4.83631
4.97366
5.11535
5.26122
5.41084
5.56344
5.7179
5.87267
6.02568
6.17441
6.31586
6.44672
6.56352
6.66286
6.74171
6.79761
6.82891
6.83483
6.81552
6.77191
6.70563
6.61876
6.51371
6.39304
6.25926
6.1144
5.9619
5.80431
5.64383
5.48239
5.32148
5.16218
5.00525
4.85123
4.70053
4.55348
4.41036
4.27135
4.13658
4.00612
3.87999
3.75816
3.6406
3.5272
3.41789
3.31254
3.21104
3.11326
3.01907
2.92834
2.84092
2.7567
2.67555
2.59734
2.52194
2.44925
2.37915
2.31153
2.24629
2.18333
2.12257
2.0639
2.00724
1.95252
1.89965
1.84857
1.7992
1.75148
1.70534
1.66072
1.61757
1.57584
1.53546
1.4964
1.4586
1.42202
1.38662
1.35235
1.31918
1.28707
1.25598
1.22588
1.19673
1.16851
1.14118
1.11472
1.08908
1.06426
1.04022
1.01693
0.994364
0.972504
0.95132
0.930791
0.910894
0.891608
0.872951
0.85495
0.837694
0.82138
0.806408
0.793651
0.047795
0.0899524
0.117125
0.138908
0.158476
0.177444
0.196772
0.217031
0.238551
0.261507
0.285979
0.311993
0.339543
0.368614
0.399183
0.431231
0.464742
0.499704
0.536112
0.573962
0.613255
0.653994
0.696182
0.739823
0.784919
0.831473
0.879484
0.928952
0.979875
1.03225
1.08606
1.14131
1.19797
1.25604
1.3155
1.37633
1.43851
1.502
1.5668
1.63286
1.70016
1.76866
1.83834
1.90915
1.98106
2.05404
2.12805
2.20306
2.27902
2.35591
2.43369
2.51234
2.59184
2.67215
2.75328
2.8352
2.91792
3.00145
3.08579
3.17099
3.25708
3.34411
3.43216
3.5213
3.61166
3.70336
3.79654
3.89139
3.98809
4.08689
4.18804
4.29182
4.39855
4.50857
4.62223
4.73993
4.86206
4.98901
5.12094
5.25831
5.40146
5.55051
5.70534
5.86548
6.03003
6.19757
6.36602
6.53265
6.69402
6.84618
6.98481
7.10557
7.20444
7.27815
7.32434
7.34182
7.33055
7.29149
7.22646
7.13787
7.02843
6.90103
6.75874
6.60539
6.44387
6.27684
6.10655
5.93487
5.76329
5.59296
5.42475
5.25933
5.09724
4.9389
4.78463
4.63466
4.48916
4.34821
4.21186
4.08008
3.95284
3.83006
3.71164
3.59747
3.48743
3.38139
3.2792
3.18073
3.08584
2.9944
2.90626
2.82129
2.73937
2.66038
2.58419
2.51068
2.43976
2.3713
2.30522
2.24142
2.1798
2.12028
2.06277
2.0072
1.9535
1.90158
1.85138
1.80284
1.7559
1.71049
1.66656
1.62406
1.58294
1.54314
1.50462
1.46734
1.43125
1.39632
1.3625
1.32975
1.29805
1.26735
1.23762
1.20884
1.18097
1.15397
1.12784
1.10252
1.07801
1.05427
1.03129
1.00904
0.987508
0.966689
0.946611
0.92732
0.908929
0.891635
0.875766
0.86197
0.0531789
0.100866
0.130906
0.155099
0.176792
0.197603
0.218512
0.24013
0.262842
0.286883
0.312391
0.339443
0.368083
0.398331
0.430197
0.463684
0.498794
0.535527
0.573886
0.613874
0.655497
0.698761
0.743672
0.790236
0.838457
0.888341
0.939887
0.993096
1.04797
1.10449
1.16265
1.22245
1.28387
1.34688
1.41146
1.47759
1.54524
1.61436
1.68493
1.75691
1.83024
1.90488
1.98078
2.05789
2.13615
2.21549
2.29587
2.37721
2.45946
2.54254
2.6264
2.71097
2.79619
2.882
2.96834
3.05515
3.14241
3.23006
3.31807
3.40643
3.49513
3.58418
3.67361
3.76347
3.85383
3.94478
4.03646
4.12903
4.2227
4.31771
4.41436
4.51298
4.61397
4.71779
4.82491
4.93591
5.05137
5.17192
5.29815
5.4309
5.57089
5.71868
5.8746
6.03865
6.21033
6.38854
6.57134
6.75588
6.93833
7.114
7.27754
7.42339
7.54628
7.64179
7.70667
7.73921
7.73912
7.70743
7.64621
7.5583
7.44669
7.316
7.16971
7.01143
6.84434
6.67114
6.49412
6.31518
6.13587
5.95744
5.78086
5.60691
5.43621
5.26924
5.10638
4.9479
4.79399
4.64477
4.50028
4.36054
4.22552
4.09513
3.9693
3.8479
3.73083
3.61795
3.50911
3.40419
3.30304
3.20551
3.11148
3.0208
2.93334
2.84897
2.76757
2.68902
2.61321
2.54002
2.46936
2.40111
2.33519
2.2715
2.20996
2.15048
2.09299
2.03741
1.98366
1.93168
1.8814
1.83277
1.78572
1.74019
1.69613
1.6535
1.61223
1.57228
1.53362
1.49618
1.45994
1.42485
1.39087
1.35798
1.32612
1.29528
1.26541
1.23649
1.20849
1.18138
1.15514
1.12973
1.10515
1.08138
1.05841
1.03624
1.01491
0.994478
0.975056
0.956824
0.940039
0.925183
0.0570189
0.108584
0.140517
0.166391
0.189664
0.2119
0.234043
0.256711
0.280317
0.305137
0.331357
0.359099
0.388444
0.419445
0.45214
0.486554
0.522704
0.560605
0.60027
0.641713
0.684944
0.729977
0.776823
0.825491
0.875992
0.928331
0.982514
1.03854
1.09641
1.15612
1.21765
1.281
1.34614
1.41305
1.48171
1.55208
1.62413
1.69781
1.77307
1.84987
1.92815
2.00784
2.08888
2.17119
2.25471
2.33935
2.42503
2.51165
2.59913
2.68738
2.77629
2.86576
2.95571
3.04602
3.13659
3.22733
3.31814
3.40893
3.49962
3.59013
3.6804
3.77039
3.86006
3.9494
4.03844
4.12722
4.21583
4.30439
4.3931
4.48218
4.57194
4.66275
4.75505
4.84939
4.94639
5.04677
5.15134
5.26099
5.37676
5.49991
5.63165
5.7731
5.92523
6.0887
6.26369
6.44968
6.64514
6.84733
7.05209
7.25394
7.44627
7.62189
7.77382
7.89612
7.98433
8.03603
8.05068
8.02945
7.97468
7.89053
7.78108
7.65079
7.50376
7.3437
7.17394
6.9973
6.81617
6.63255
6.4481
6.26413
6.08171
5.90171
5.7248
5.55153
5.38232
5.21747
5.05721
4.90166
4.75091
4.60497
4.46383
4.32742
4.19567
4.06848
3.94572
3.82728
3.713
3.60277
3.49643
3.39385
3.29489
3.19942
3.10729
3.01837
2.93256
2.84971
2.76972
2.69248
2.61787
2.54579
2.47615
2.40885
2.34381
2.28093
2.22013
2.16134
2.10449
2.04949
1.99629
1.94482
1.89501
1.84681
1.80017
1.75502
1.71131
1.669
1.62804
1.58839
1.54999
1.51281
1.47681
1.44195
1.40819
1.37551
1.34386
1.31321
1.28355
1.25483
1.22703
1.20014
1.17414
1.14901
1.12475
1.10138
1.07892
1.05745
1.03707
1.01794
1.00023
0.984326
0.0594464
0.113403
0.146322
0.173126
0.197374
0.220548
0.243531
0.266916
0.291117
0.316429
0.343066
0.37118
0.400881
0.432248
0.465338
0.500197
0.536858
0.57535
0.615699
0.657926
0.702052
0.748099
0.796083
0.846023
0.897931
0.951821
1.0077
1.06557
1.12544
1.1873
1.25114
1.31695
1.38472
1.45441
1.526
1.59945
1.67472
1.75177
1.83053
1.91095
1.99297
2.07651
2.16148
2.24782
2.33541
2.42417
2.51399
2.60476
2.69637
2.78869
2.88159
2.97494
3.06861
3.16246
3.25634
3.3501
3.44361
3.53673
3.6293
3.7212
3.8123
3.90248
3.99165
4.07973
4.16665
4.25241
4.33701
4.42053
4.50307
4.58483
4.66608
4.74716
4.82855
4.91083
4.9947
5.08103
5.17082
5.2652
5.36565
5.47388
5.59165
5.72076
5.86301
6.02
6.19292
6.38225
6.5873
6.80581
7.03355
7.26424
7.48981
7.70083
7.88794
8.0432
8.16031
8.23603
8.26958
8.26263
8.21877
8.14258
8.03883
7.9123
7.76746
7.60832
7.43842
7.26077
7.07794
6.89204
6.7048
6.51765
6.33172
6.14794
5.96705
5.78962
5.61612
5.44689
5.28216
5.1221
4.9668
4.81631
4.67061
4.52966
4.3934
4.26173
4.13454
4.01172
3.89313
3.77866
3.66814
3.56147
3.45849
3.35907
3.26308
3.1704
3.0809
2.99445
2.91094
2.83027
2.75231
2.67698
2.60416
2.53377
2.46571
2.3999
2.33625
2.27468
2.21513
2.15751
2.10175
2.0478
1.99558
1.94503
1.89611
1.84874
1.80289
1.75849
1.7155
1.67387
1.63356
1.59453
1.55672
1.52011
1.48466
1.45033
1.41709
1.3849
1.35374
1.32358
1.2944
1.26618
1.23889
1.21255
1.18714
1.16268
1.13921
1.11678
1.0955
1.07549
1.05688
1.03995
0.0605947
0.115702
0.148829
0.175871
0.200498
0.22411
0.247518
0.271267
0.295751
0.321262
0.34802
0.376194
0.405909
0.437262
0.470329
0.505169
0.541832
0.580358
0.620784
0.663144
0.707469
0.753786
0.802122
0.852501
0.904945
0.959469
1.01609
1.07482
1.13565
1.1986
1.26366
1.33081
1.40004
1.47133
1.54465
1.61995
1.69721
1.77636
1.85735
1.94012
2.0246
2.11069
2.19832
2.28739
2.3778
2.46943
2.56216
2.65586
2.75041
2.84564
2.94142
3.03757
3.13394
3.23034
3.3266
3.42253
3.51794
3.61263
3.70641
3.79909
3.89046
3.98036
4.06859
4.155
4.23946
4.32185
4.40209
4.48015
4.55605
4.6299
4.70187
4.77224
4.84142
4.90997
4.97861
5.04826
5.12003
5.19529
5.27581
5.36373
5.46138
5.57131
5.69629
5.83913
6.00243
6.18825
6.39743
6.62889
6.87878
7.14032
7.40377
7.65676
7.88635
8.08215
8.23494
8.34048
8.39852
8.41135
8.38311
8.31893
8.22426
8.10445
7.96445
7.80868
7.64101
7.46468
7.28243
7.09651
6.90877
6.72068
6.53344
6.34805
6.16526
5.98571
5.80988
5.63814
5.47075
5.3079
5.1497
4.9962
4.84743
4.70335
4.56391
4.42903
4.29861
4.17255
4.05073
3.93303
3.81931
3.70945
3.60332
3.50079
3.40172
3.30601
3.21352
3.12414
3.03776
2.95425
2.87353
2.79548
2.72
2.64701
2.57641
2.50811
2.44204
2.3781
2.31623
2.25636
2.19841
2.14231
2.088
2.03542
1.98452
1.93522
1.88749
1.84126
1.79649
1.75313
1.71114
1.67046
1.63107
1.59291
1.55595
1.52016
1.4855
1.45194
1.41945
1.38801
1.35759
1.32817
1.29974
1.27231
1.24586
1.22042
1.19602
1.17271
1.15059
1.12973
1.11024
1.09234
0.0606025
0.115874
0.148593
0.175299
0.199775
0.223363
0.246794
0.270558
0.295008
0.320416
0.346994
0.374912
0.404302
0.435271
0.467908
0.502283
0.538458
0.576487
0.616415
0.658287
0.702141
0.748015
0.795943
0.845957
0.898085
0.952351
1.00878
1.06738
1.12817
1.19115
1.25632
1.32369
1.39322
1.46491
1.53873
1.61465
1.69262
1.77259
1.85451
1.9383
2.02391
2.11123
2.20019
2.29067
2.38256
2.47575
2.5701
2.66547
2.76171
2.85866
2.95614
3.05398
3.15197
3.24992
3.34761
3.44482
3.54133
3.63688
3.73123
3.82415
3.91536
4.00462
4.09168
4.1763
4.25824
4.3373
4.41329
4.48606
4.55552
4.62164
4.68446
4.74412
4.80092
4.85527
4.9078
4.95938
5.01114
5.06452
5.12145
5.18433
5.25594
5.33954
5.4389
5.5582
5.70189
5.87425
6.07867
6.31646
6.58497
6.87758
7.18322
7.48576
7.76611
8.01004
8.20671
8.35043
8.44024
8.47875
8.47079
8.42241
8.33997
8.22961
8.09696
7.94693
7.78377
7.611
7.43156
7.24784
7.06177
6.8749
6.68849
6.50355
6.32089
6.14117
5.96489
5.79244
5.62412
5.46013
5.3006
5.14561
4.99519
4.84933
4.708
4.57114
4.43865
4.31046
4.18644
4.0665
3.95051
3.83836
3.72992
3.62507
3.52369
3.42567
3.33088
3.23922
3.15057
3.06482
2.98188
2.90165
2.82402
2.74891
2.67623
2.60589
2.5378
2.4719
2.4081
2.34633
2.28653
2.22862
2.17254
2.11823
2.06563
2.01468
1.96533
1.91753
1.87122
1.82637
1.78291
1.74081
1.70002
1.66051
1.62224
1.58517
1.54926
1.51449
1.48083
1.44825
1.41673
1.38625
1.35681
1.32839
1.30102
1.27469
1.24944
1.22532
1.2024
1.18074
1.1604
1.14159
0.0595848
0.114266
0.146145
0.172097
0.196012
0.219191
0.242295
0.265749
0.289861
0.31487
0.340973
0.368327
0.397065
0.4273
0.459124
0.492619
0.527854
0.564894
0.603793
0.644605
0.687375
0.732144
0.778955
0.827849
0.878862
0.932026
0.987369
1.04491
1.10468
1.16668
1.23092
1.29739
1.36611
1.43704
1.51017
1.58547
1.6629
1.74242
1.82397
1.90749
1.9929
2.08012
2.16907
2.25962
2.35168
2.4451
2.53977
2.63552
2.73219
2.82962
2.92762
3.02598
3.12451
3.22296
3.32111
3.41871
3.51548
3.61117
3.70548
3.79811
3.88876
3.97711
4.06286
4.14568
4.22525
4.30128
4.37346
4.44154
4.50528
4.56451
4.61909
4.66902
4.71436
4.75536
4.79242
4.82623
4.85776
4.88835
4.91987
4.9547
4.99582
5.0469
5.11252
5.19818
5.31033
5.45607
5.64256
5.87598
6.1556
6.47619
6.82471
7.18093
7.52138
7.82513
8.0768
8.26815
8.39739
8.4675
8.48443
8.45547
8.38824
8.28993
8.16698
8.02494
7.86849
7.70145
7.52697
7.34757
7.16528
6.98172
6.79816
6.61566
6.43506
6.25702
6.08209
5.91067
5.74307
5.57952
5.42017
5.26513
5.11444
4.96812
4.82614
4.68847
4.55504
4.42577
4.30058
4.17936
4.06202
3.94843
3.83851
3.73212
3.62917
3.52954
3.43312
3.33981
3.24951
3.1621
3.0775
2.9956
2.91632
2.83957
2.76525
2.6933
2.62362
2.55614
2.49078
2.42748
2.36617
2.30677
2.24923
2.19349
2.13948
2.08716
2.03646
1.98733
1.93972
1.89359
1.84889
1.80558
1.7636
1.72293
1.68352
1.64535
1.60836
1.57254
1.53786
1.50428
1.4718
1.44039
1.41005
1.38078
1.35257
1.32545
1.29943
1.27457
1.2509
1.22848
1.20735
1.18769
0.0576099
0.111119
0.141922
0.166901
0.19
0.212498
0.234999
0.25787
0.281374
0.305718
0.331074
0.357587
0.385383
0.414571
0.445247
0.477497
0.511396
0.547017
0.584425
0.623686
0.664846
0.707931
0.752999
0.800102
0.849284
0.900584
0.954038
1.00968
1.06753
1.12761
1.18993
1.25451
1.32134
1.39043
1.46174
1.53527
1.61098
1.68884
1.76879
1.85077
1.93473
2.02057
2.10821
2.19754
2.28846
2.38084
2.47454
2.56941
2.66528
2.76197
2.8593
2.95705
3.055
3.15291
3.25054
3.34761
3.44383
3.53891
3.63252
3.72435
3.81403
3.90121
3.98553
4.06659
4.14402
4.21742
4.28641
4.35062
4.40968
4.46328
4.51114
4.55302
4.58881
4.61848
4.64219
4.66029
4.67348
4.68277
4.68977
4.69653
4.70575
4.72108
4.74736
4.79096
4.86005
4.9646
5.11595
5.32512
5.59894
5.93665
6.32577
6.74171
7.1529
7.52912
7.84793
8.09712
8.27373
8.38141
8.42763
8.42147
8.37215
8.28822
8.17712
8.04513
7.8974
7.73811
7.5706
7.39752
7.22098
7.04266
6.86386
6.68567
6.50893
6.33433
6.16244
5.99367
5.82836
5.66675
5.50902
5.35529
5.20564
5.0601
4.91866
4.78132
4.64802
4.5187
4.3933
4.27174
4.15392
4.03975
3.92913
3.82197
3.71817
3.61763
3.52024
3.42591
3.33454
3.24604
3.16031
3.07727
2.99683
2.9189
2.8434
2.77026
2.69939
2.63072
2.56419
2.49971
2.43723
2.37667
2.31799
2.26111
2.20598
2.15255
2.10075
2.05055
2.00189
1.95471
1.90899
1.86467
1.8217
1.78006
1.73971
1.7006
1.6627
1.62599
1.59043
1.55601
1.52271
1.4905
1.45938
1.42935
1.40041
1.37258
1.34588
1.32033
1.29598
1.27286
1.25099
1.23054
0.0548997
0.106579
0.136259
0.160256
0.182462
0.204139
0.225856
0.247945
0.270634
0.294102
0.318498
0.343952
0.370577
0.398478
0.427745
0.458464
0.490711
0.52456
0.560077
0.597325
0.636359
0.677231
0.719996
0.764709
0.811418
0.860171
0.91101
0.963974
1.0191
1.07641
1.13592
1.19767
1.26165
1.32788
1.39634
1.46703
1.53991
1.61498
1.69217
1.77145
1.85275
1.936
2.02112
2.10802
2.19658
2.28669
2.37821
2.47099
2.56487
2.65967
2.7552
2.85124
2.94758
3.04395
3.14011
3.23578
3.33064
3.4244
3.51671
3.60721
3.69554
3.7813
3.86408
3.94346
4.01899
4.09023
4.15672
4.21799
4.27358
4.32305
4.36598
4.40197
4.43069
4.45189
4.46541
4.47131
4.46988
4.46169
4.44795
4.43006
4.41003
4.39083
4.37675
4.37393
4.39102
4.43987
4.53589
4.69715
4.94088
5.27656
5.69716
6.17475
6.66646
7.1283
7.52701
7.84455
8.07636
8.22711
8.30645
8.32583
8.29657
8.22885
8.13132
8.01106
7.87377
7.72395
7.56516
7.40016
7.23113
7.05978
6.88745
6.71523
6.54399
6.37442
6.20711
6.04248
5.88089
5.7226
5.56782
5.41668
5.26928
5.12568
4.98591
4.84995
4.7178
4.58942
4.46474
4.34372
4.22627
4.11232
4.00179
3.89459
3.79064
3.68985
3.59213
3.49739
3.40554
3.3165
3.23018
3.14651
3.06539
2.98675
2.91052
2.83661
2.76496
2.69549
2.62814
2.56284
2.49953
2.43814
2.37862
2.3209
2.26494
2.21067
2.15805
2.10702
2.05754
2.00955
1.96302
1.9179
1.87416
1.83174
1.79061
1.75075
1.71211
1.67467
1.63839
1.60327
1.56927
1.53638
1.5046
1.47393
1.44436
1.41591
1.3886
1.36244
1.33747
1.31371
1.29117
1.27001
0.0517373
0.100921
0.129479
0.152577
0.173906
0.194695
0.215504
0.236652
0.258349
0.280755
0.303999
0.328194
0.353442
0.379834
0.407456
0.436386
0.4667
0.498467
0.531755
0.566628
0.603146
0.641369
0.681355
0.723163
0.766847
0.81246
0.860051
0.909668
0.961352
1.01514
1.07107
1.12916
1.18943
1.2519
1.31659
1.38347
1.45255
1.52381
1.59722
1.67274
1.75032
1.82991
1.91142
1.99478
2.07989
2.16664
2.25489
2.34451
2.43534
2.52721
2.61993
2.71328
2.80705
2.90099
2.99485
3.08832
3.18113
3.27293
3.36339
3.45215
3.5388
3.62295
3.70417
3.78199
3.85594
3.92554
3.99028
4.04963
4.10305
4.15003
4.19001
4.2225
4.24697
4.26299
4.27015
4.26822
4.2571
4.2369
4.20842
4.17227
4.12951
4.08199
4.03267
3.98628
3.95019
3.93588
3.96068
4.04915
4.23155
4.53506
4.96706
5.50072
6.07916
6.63833
7.12887
7.52421
7.8177
8.01557
8.13045
8.17687
8.16876
8.11823
8.03526
7.92783
7.80218
7.66313
7.51441
7.35889
7.1988
7.03586
6.87143
6.70659
6.54224
6.37907
6.21766
6.05847
5.90186
5.74812
5.59746
5.45005
5.30601
5.16542
5.02833
4.89475
4.76469
4.63814
4.51506
4.39541
4.27913
4.16617
4.05646
3.94993
3.84651
3.74612
3.64868
3.55412
3.46236
3.37333
3.28694
3.20313
3.12181
3.04292
2.96639
2.89213
2.8201
2.75022
2.68243
2.61666
2.55285
2.49096
2.43091
2.37265
2.31614
2.26131
2.20812
2.15651
2.10645
2.05789
2.01077
1.96507
1.92074
1.87774
1.83603
1.79559
1.75637
1.71836
1.68152
1.64583
1.61128
1.57785
1.54553
1.51432
1.48422
1.45525
1.4274
1.40071
1.37519
1.35085
1.32772
1.30592
0.0480598
0.0943628
0.121802
0.14407
0.164562
0.18445
0.20429
0.224403
0.244993
0.266207
0.28816
0.310952
0.334668
0.359389
0.385188
0.412138
0.440306
0.469759
0.500563
0.532781
0.566475
0.60171
0.638546
0.677046
0.717269
0.759273
0.803117
0.848852
0.89653
0.946198
0.997899
1.05167
1.10755
1.16555
1.2257
1.28802
1.3525
1.41913
1.48792
1.55883
1.63183
1.70686
1.78388
1.86282
1.94357
2.02606
2.11016
2.19574
2.28265
2.37074
2.45981
2.54968
2.64013
2.73091
2.82177
2.91244
3.00261
3.09197
3.18017
3.26685
3.35162
3.43407
3.51376
3.59022
3.66297
3.73151
3.79529
3.85377
3.90636
3.95249
3.99156
4.02296
4.04608
4.06033
4.06513
4.06001
4.04447
4.01857
3.9825
3.93616
3.87971
3.81379
3.73976
3.6602
3.57983
3.5072
3.45766
3.45779
3.54892
3.78166
4.19117
4.76289
5.42615
6.08935
6.67974
7.15875
7.51701
7.76299
7.91325
7.98616
7.99864
7.96498
7.89657
7.80223
7.68872
7.56113
7.42331
7.27819
7.12801
6.9745
6.81902
6.66264
6.50625
6.35055
6.19612
6.04343
5.89284
5.74467
5.59914
5.45644
5.31671
5.18006
5.04655
4.91622
4.78911
4.66522
4.54453
4.42702
4.31266
4.2014
4.0932
3.988
3.88574
3.78636
3.68981
3.596
3.50488
3.41637
3.33042
3.24695
3.1659
3.0872
3.01079
2.93661
2.86459
2.79468
2.7268
2.66091
2.59696
2.53487
2.47461
2.41611
2.35933
2.30421
2.25071
2.19879
2.14839
2.09948
2.052
2.00593
1.96122
1.91783
1.87573
1.83488
1.79527
1.75684
1.71959
1.68349
1.64852
1.61467
1.58193
1.5503
1.51978
1.49037
1.46208
1.43493
1.40893
1.3841
1.36044
1.33808
0.0440677
0.0872466
0.113515
0.134957
0.15463
0.173627
0.19249
0.211539
0.230974
0.250934
0.271523
0.292827
0.314917
0.337861
0.361722
0.386563
0.412444
0.439428
0.467576
0.496952
0.527618
0.55964
0.593081
0.628007
0.664482
0.70257
0.742336
0.783839
0.827138
0.872292
0.919352
0.968368
1.01938
1.07244
1.12757
1.18479
1.24413
1.30561
1.3692
1.43492
1.50274
1.57263
1.64455
1.71844
1.79423
1.87184
1.95117
2.03209
2.11449
2.19819
2.28305
2.36887
2.45545
2.54255
2.62995
2.71737
2.80452
2.89111
2.97678
3.0612
3.14399
3.22474
3.30302
3.37838
3.45034
3.51839
3.582
3.64062
3.69365
3.7405
3.78054
3.81311
3.83755
3.85317
3.85932
3.85528
3.84025
3.81466
3.77788
3.7293
3.66839
3.59477
3.50837
3.40972
3.3006
3.18555
3.07497
2.99127
2.97845
3.10719
3.45188
4.02958
4.76348
5.52797
6.21844
6.78007
7.20016
7.49032
7.67195
7.76783
7.79818
7.77943
7.72428
7.6423
7.5406
7.42443
7.29769
7.16332
7.02352
6.88
6.73408