/*--------------------------------*- C++ -*----------------------------------*\
| =========                 |                                                 |
| \\      /  F ield         | OpenFOAM: The Open Source CFD Toolbox           |
|  \\    /   O peration     | Version:  1.4.2                                 |
|   \\  /    A nd           | Web:      http://www.openfoam.org               |
|    \\/     M anipulation  |                                                 |
\*---------------------------------------------------------------------------*/
FoamFile
{
    version     2.0;
    format      ascii;
    class       volScalarField;
    object      p;
    location    "400";
}
// * * * * * * * * * * * * * * * * * * * * * * * * * * * * * * * * * * * * * //

dimensions      [0 2 -2 0 0 0 0];

internalField   nonuniform List<scalar> 
12225
(
-2.65086
-3.48807
-3.73652
-3.83259
-3.93647
-4.03777
-4.12646
-4.20614
-4.28071
-4.35183
-4.42049
-4.48769
-4.55465
-4.6229
-4.69458
-4.77343
-4.86571
-4.9969
-2.8172
-3.49521
-3.7345
-3.83418
-3.93709
-4.03668
-4.12419
-4.20295
-4.27664
-4.34691
-4.41474
-4.48112
-4.54726
-4.61461
-4.68522
-4.76242
-4.85188
-4.96932
-2.99626
-3.49117
-3.7237
-3.83185
-3.93492
-4.0331
-4.11993
-4.19838
-4.27175
-4.34164
-4.40904
-4.47491
-4.54034
-4.60661
-4.67532
-4.74862
-4.82836
-4.91623
-3.15346
-3.50877
-3.72661
-3.83912
-3.94062
-4.03632
-4.1218
-4.19951
-4.27229
-4.34162
-4.40843
-4.47362
-4.53809
-4.60286
-4.66893
-4.73724
-4.80723
-4.876
-3.28339
-3.54027
-3.73731
-3.85038
-3.94948
-4.04231
-4.12599
-4.20252
-4.27428
-4.34265
-4.40848
-4.47255
-4.53557
-4.59823
-4.66097
-4.72378
-4.78489
-4.84019
-3.39663
-3.5802
-3.75306
-3.86362
-3.95957
-4.04934
-4.13108
-4.20628
-4.27694
-4.34422
-4.40891
-4.47164
-4.53293
-4.59315
-4.65231
-4.70982
-4.76354
-4.80973
-3.49711
-3.62601
-3.77363
-3.87885
-3.97077
-4.05698
-4.13635
-4.20994
-4.27927
-4.34532
-4.40871
-4.46992
-4.52928
-4.58688
-4.64247
-4.69516
-4.74298
-4.78309
-3.57354
-3.66814
-3.79494
-3.89365
-3.98139
-4.06412
-4.14106
-4.2129
-4.28082
-4.34555
-4.40761
-4.46734
-4.5249
-4.58026
-4.63299
-4.68218
-4.72618
-4.76286
-3.63485
-3.70652
-3.8159
-3.90827
-3.99186
-4.07123
-4.14575
-4.2158
-4.28221
-4.34558
-4.40627
-4.46452
-4.5204
-4.57374
-4.62408
-4.67058
-4.71192
-4.74644
-3.69533
-3.74852
-3.84058
-3.92555
-4.00426
-4.07972
-4.15139
-4.21926
-4.28385
-4.34554
-4.4046
-4.46112
-4.51509
-4.56627
-4.61423
-4.65823
-4.69733
-4.73024
-3.75419
-3.79316
-3.8689
-3.94551
-4.01866
-4.08969
-4.15802
-4.22331
-4.28572
-4.34545
-4.40259
-4.45717
-4.50906
-4.55804
-4.60369
-4.64546
-4.68271
-4.71454
-3.81061
-3.83916
-3.90033
-3.968
-4.03504
-4.1012
-4.16572
-4.228
-4.28787
-4.34532
-4.4003
-4.45273
-4.50245
-4.54922
-4.59272
-4.63257
-4.66835
-4.6995
-3.86383
-3.885
-3.93387
-3.99255
-4.05314
-4.1141
-4.17444
-4.23332
-4.29032
-4.34519
-4.39778
-4.44793
-4.49543
-4.54008
-4.58163
-4.61984
-4.65451
-4.68527
-3.91289
-3.92897
-3.96796
-4.0182
-4.07233
-4.12799
-4.18392
-4.23914
-4.29299
-4.34508
-4.39514
-4.44292
-4.48823
-4.53087
-4.5707
-4.60756
-4.64138
-4.67194
-3.95647
-3.96909
-4.00057
-4.04345
-4.0915
-4.14203
-4.19358
-4.24506
-4.29567
-4.3449
-4.39237
-4.43782
-4.48104
-4.52186
-4.56018
-4.59593
-4.62908
-4.65954
-3.99259
-4.00294
-4.02907
-4.06609
-4.10893
-4.15488
-4.20241
-4.25036
-4.29787
-4.34435
-4.38937
-4.43264
-4.47396
-4.51317
-4.5502
-4.58503
-4.61765
-4.64801
-4.0183
-4.02729
-4.05006
-4.08307
-4.12207
-4.16451
-4.20881
-4.25384
-4.29873
-4.34285
-4.38576
-4.42717
-4.46687
-4.50474
-4.54071
-4.57479
-4.60695
-4.63719
-4.02829
-4.03683
-4.05848
-4.08995
-4.12725
-4.16794
-4.21051
-4.25384
-4.29711
-4.3397
-4.38122
-4.42136
-4.45995
-4.49687
-4.5321
-4.56561
-4.5974
-4.62748
-4.02144
-4.03049
-4.05327
-4.08579
-4.12373
-4.16465
-4.20715
-4.25021
-4.29304
-4.3351
-4.37603
-4.41559
-4.45363
-4.49006
-4.52486
-4.55805
-4.5896
-4.61953
-4.00152
-4.01206
-4.0381
-4.07386
-4.11423
-4.15686
-4.20055
-4.24435
-4.28759
-4.32982
-4.37075
-4.41021
-4.44809
-4.48434
-4.51896
-4.55197
-4.58339
-4.61319
-3.9711
-3.98447
-4.01617
-4.05713
-4.10125
-4.1466
-4.19226
-4.23744
-4.28159
-4.32439
-4.36567
-4.40531
-4.44326
-4.47951
-4.51408
-4.54703
-4.57836
-4.60805
-3.93143
-3.94976
-3.99008
-4.03794
-4.08667
-4.13534
-4.18344
-4.23032
-4.27563
-4.3192
-4.36099
-4.40095
-4.43908
-4.47543
-4.51004
-4.54296
-4.57422
-4.60378
-3.8828
-3.90959
-3.96215
-4.01818
-4.0719
-4.12416
-4.17486
-4.22353
-4.27004
-4.31443
-4.35677
-4.3971
-4.43548
-4.47198
-4.50666
-4.53959
-4.57078
-4.60019
-3.82467
-3.86562
-3.93457
-3.99931
-4.05786
-4.1137
-4.16697
-4.21733
-4.26497
-4.31013
-4.353
-4.3937
-4.43233
-4.46899
-4.50377
-4.53671
-4.56785
-4.59707
-3.75583
-3.81977
-3.90934
-3.98229
-4.04513
-4.10436
-4.15998
-4.21182
-4.2604
-4.30621
-4.34953
-4.39054
-4.4294
-4.46623
-4.50112
-4.53412
-4.56523
-4.59429
-3.67454
-3.7744
-3.88796
-3.96752
-4.03377
-4.09606
-4.15372
-4.20674
-4.25607
-4.30239
-4.34606
-4.38733
-4.4264
-4.46341
-4.49848
-4.53164
-4.56284
-4.5918
-3.57732
-3.73315
-3.87162
-3.95488
-4.02371
-4.08877
-4.14819
-4.20217
-4.25213
-4.29892
-4.34296
-4.38454
-4.42388
-4.46118
-4.49655
-4.53005
-4.5616
-4.59085
-3.45254
-3.70184
-3.86289
-3.94525
-4.01559
-4.08315
-4.14406
-4.19882
-4.24928
-4.29645
-4.34079
-4.3826
-4.42215
-4.45966
-4.4953
-4.52919
-4.56129
-4.59132
-3.29159
-3.69105
-3.87
-3.94627
-4.01624
-4.08518
-4.14676
-4.2017
-4.25222
-4.29945
-4.34383
-4.38567
-4.42525
-4.46282
-4.4986
-4.53286
-4.56577
-4.59776
-3.1287
-3.6745
-3.86998
-3.94357
-4.0141
-4.0844
-4.14675
-4.20208
-4.2529
-4.3004
-4.34504
-4.38713
-4.42696
-4.46478
-4.50087
-4.53557
-4.5694
-4.60635
-5.23597
-5.23559
-5.23782
-5.24183
-5.24634
-5.25084
-5.25537
-5.26001
-5.26507
-5.27173
-5.28094
-5.29286
-5.30769
-5.32569
-5.34708
-5.37209
-5.40089
-5.43352
-5.46976
-5.50952
-5.55285
-5.59971
-5.65004
-5.70378
-5.76084
-5.82114
-5.88459
-5.95109
-6.02058
-6.09294
-6.16811
-6.24599
-6.32651
-6.40958
-6.49512
-6.58305
-6.67328
-6.76575
-6.86036
-6.95703
-7.05568
-7.15621
-7.25852
-7.36251
-7.46807
-7.57507
-7.68337
-7.79283
-7.90328
-8.01454
-8.12641
-8.23865
-8.35101
-8.46319
-8.57485
-8.68563
-8.7951
-8.90277
-9.0081
-9.11047
-9.20916
-9.30337
-9.39217
-9.4745
-9.54919
-9.61485
-9.66997
-9.7128
-9.74137
-9.75347
-9.74663
-9.71809
-9.66475
-9.58312
-9.46939
-9.31962
-9.12974
-8.89533
-8.61123
-8.27177
-7.87186
-7.4074
-6.8751
-6.27266
-5.59911
-4.85512
-4.04328
-3.16818
-2.23649
-1.25676
-0.239135
0.805022
1.86368
2.92467
3.97619
5.00731
6.0083
6.97094
7.88861
8.75638
9.57093
10.3304
11.0344
11.6835
12.2794
12.8244
13.3215
13.7739
14.186
14.5668
14.9164
15.2296
15.5093
15.7587
15.9808
16.1785
16.3541
16.51
16.6483
16.7708
16.8792
16.975
17.0596
17.1342
17.1999
17.2576
17.3082
17.3525
17.3912
17.4249
17.4541
17.4793
17.501
17.5195
17.5352
17.5484
17.5594
17.5683
17.5755
17.581
17.5852
17.588
17.5897
17.5904
17.5901
17.589
17.5872
17.5846
17.5815
17.5777
17.5734
17.5687
17.5634
17.5578
17.5517
17.5453
17.5385
17.5314
17.5239
17.5161
17.508
17.4996
17.491
17.4822
17.4732
17.4641
17.4551
17.4462
17.4376
17.4296
17.4226
17.4171
17.4139
17.4143
17.4203
17.435
17.4636
17.5155
17.6144
17.7816
-5.23488
-5.23567
-5.23774
-5.24032
-5.24278
-5.24537
-5.24797
-5.25057
-5.25352
-5.25747
-5.26341
-5.27201
-5.28368
-5.29867
-5.31716
-5.33927
-5.36502
-5.39433
-5.42728
-5.46395
-5.50429
-5.5482
-5.59562
-5.64647
-5.70065
-5.75808
-5.81868
-5.88236
-5.94903
-6.01861
-6.09101
-6.16616
-6.24396
-6.32435
-6.40724
-6.49256
-6.58022
-6.67016
-6.76229
-6.85653
-6.9528
-7.051
-7.15105
-7.25283
-7.35626
-7.4612
-7.56753
-7.67512
-7.78379
-7.89339
-8.00372
-8.11456
-8.22567
-8.33677
-8.44756
-8.55768
-8.66673
-8.77427
-8.87978
-8.98268
-9.0823
-9.1779
-9.2686
-9.35344
-9.4313
-9.50092
-9.56088
-9.60956
-9.64512
-9.66552
-9.66846
-9.65138
-9.61138
-9.5452
-9.44931
-9.32007
-9.15371
-8.9458
-8.69076
-8.38289
-8.0175
-7.59055
-7.09843
-6.53837
-5.90879
-5.20958
-4.44237
-3.61072
-2.72018
-1.77822
-0.793997
0.221977
1.25831
2.30322
3.34506
4.3728
5.37641
6.34719
7.27793
8.16305
8.99852
9.78183
10.5118
11.1881
11.8116
12.3838
12.9077
13.3888
13.8286
14.2284
14.591
14.9178
15.2117
15.4757
15.7124
15.9244
16.1141
16.2836
16.435
16.5701
16.6906
16.7978
16.8932
16.9781
17.0534
17.1202
17.1795
17.2318
17.2781
17.3188
17.3547
17.3862
17.4137
17.4377
17.4585
17.4765
17.4919
17.5051
17.5162
17.5254
17.533
17.5391
17.5438
17.5473
17.5496
17.551
17.5515
17.5511
17.5499
17.5481
17.5456
17.5424
17.5388
17.5346
17.5299
17.5247
17.5191
17.5131
17.5067
17.4999
17.4927
17.4852
17.4774
17.4693
17.4611
17.4527
17.4443
17.436
17.428
17.4207
17.4143
17.4094
17.4069
17.4081
17.4148
17.4303
17.4596
17.5107
17.6042
17.7332
-5.22215
-5.22548
-5.2292
-5.23251
-5.23529
-5.23748
-5.23961
-5.24215
-5.24556
-5.25033
-5.25699
-5.26598
-5.27765
-5.29228
-5.31007
-5.33119
-5.35573
-5.38373
-5.41518
-5.45011
-5.48851
-5.53034
-5.57556
-5.62412
-5.67594
-5.73098
-5.78914
-5.85037
-5.91459
-5.98172
-6.05168
-6.12441
-6.19984
-6.27788
-6.35847
-6.44154
-6.52701
-6.6148
-6.70485
-6.79707
-6.89138
-6.98769
-7.08592
-7.18597
-7.28773
-7.39108
-7.49591
-7.60208
-7.70944
-7.81781
-7.92703
-8.03687
-8.1471
-8.25748
-8.36769
-8.47741
-8.58625
-8.6938
-8.79956
-8.90298
-9.00346
-9.10026
-9.19259
-9.27954
-9.36006
-9.43297
-9.49695
-9.55049
-9.59188
-9.61921
-9.63035
-9.6229
-9.59415
-9.54105
-9.46032
-9.34868
-9.20263
-9.01759
-8.78764
-8.5075
-8.17284
-7.77937
-7.3232
-6.80118
-6.21117
-5.55236
-4.82555
-4.03341
-3.18058
-2.27362
-1.32091
-0.332314
0.68125
1.70828
2.73724
3.757
4.75734
5.72924
6.66511
7.55891
8.40613
9.20364
9.94949
10.6428
11.2843
11.8766
12.4251
12.9312
13.3935
13.8152
14.1995
14.5478
14.8629
15.1473
15.4038
15.6348
15.8425
16.0292
16.1967
16.3471
16.4819
16.6026
16.7107
16.8073
16.8937
16.9709
17.0398
17.1012
17.1559
17.2045
17.2477
17.286
17.3199
17.3499
17.3763
17.3995
17.4198
17.4375
17.4528
17.466
17.4772
17.4867
17.4947
17.5012
17.5063
17.5103
17.5133
17.5152
17.5162
17.5163
17.5157
17.5143
17.5123
17.5096
17.5064
17.5026
17.4982
17.4934
17.4881
17.4823
17.4761
17.4695
17.4625
17.4553
17.4478
17.4401
17.4324
17.4247
17.4173
17.4105
17.4047
17.4003
17.3983
17.3998
17.4067
17.4218
17.4494
17.4952
17.5739
17.659
-5.20027
-5.20705
-5.21404
-5.21885
-5.22231
-5.22538
-5.22865
-5.23258
-5.23755
-5.24396
-5.25216
-5.26248
-5.27522
-5.29062
-5.3089
-5.33022
-5.3547
-5.38243
-5.41344
-5.44777
-5.48542
-5.52638
-5.57064
-5.61814
-5.66886
-5.72273
-5.77971
-5.83973
-5.90272
-5.96863
-6.03738
-6.10891
-6.18315
-6.26004
-6.33951
-6.42149
-6.50592
-6.59271
-6.68179
-6.7731
-6.86655
-6.96206
-7.05955
-7.15892
-7.26007
-7.3629
-7.46729
-7.57309
-7.68018
-7.7884
-7.89756
-8.00747
-8.11792
-8.22866
-8.3394
-8.44983
-8.5596
-8.6683
-8.77548
-8.88061
-8.98312
-9.08233
-9.17748
-9.26772
-9.35208
-9.42944
-9.49855
-9.558
-9.60618
-9.64129
-9.6613
-9.66395
-9.64663
-9.60643
-9.54028
-9.44508
-9.31732
-9.15188
-8.94287
-8.68543
-8.37511
-8.00729
-7.57771
-7.08269
-6.51949
-5.88662
-5.1842
-4.41421
-3.58071
-2.68985
-1.74974
-0.770181
0.237797
1.26243
2.29178
3.31434
4.31944
5.29767
6.24107
7.14322
7.99918
8.80539
9.55972
10.2624
10.9175
11.5271
12.0917
12.6118
13.0884
13.5245
13.9227
14.285
14.6137
14.9114
15.1807
15.4239
15.6434
15.8412
16.0195
16.18
16.3244
16.4542
16.5709
16.6757
16.7698
16.8542
16.93
16.9978
17.0586
17.1129
17.1615
17.2048
17.2435
17.2779
17.3085
17.3357
17.3597
17.3808
17.3994
17.4157
17.4298
17.442
17.4525
17.4614
17.4689
17.475
17.4799
17.4837
17.4864
17.4882
17.4891
17.4892
17.4886
17.4872
17.4852
17.4825
17.4792
17.4753
17.471
17.466
17.4607
17.4548
17.4486
17.4421
17.4352
17.4281
17.4209
17.4137
17.4068
17.4003
17.3948
17.3906
17.3886
17.3899
17.396
17.4092
17.4328
17.4696
17.5295
17.5781
-5.17526
-5.18522
-5.19565
-5.2027
-5.20802
-5.21303
-5.21837
-5.2244
-5.23148
-5.23992
-5.25003
-5.26208
-5.27632
-5.29298
-5.31227
-5.33436
-5.35936
-5.38739
-5.41852
-5.45278
-5.49022
-5.53083
-5.5746
-5.62153
-5.67158
-5.72471
-5.78089
-5.84006
-5.90217
-5.96716
-6.03498
-6.10558
-6.17889
-6.25485
-6.3334
-6.41449
-6.49803
-6.58398
-6.67226
-6.7628
-6.85553
-6.95037
-7.04724
-7.14607
-7.24674
-7.34917
-7.45324
-7.55883
-7.6658
-7.77401
-7.8833
-7.99349
-8.10436
-8.21569
-8.32723
-8.43867
-8.54968
-8.65989
-8.76888
-8.87615
-8.98117
-9.0833
-9.18185
-9.27602
-9.36488
-9.4474
-9.52242
-9.58859
-9.64441
-9.68818
-9.71797
-9.73162
-9.72662
-9.7002
-9.64942
-9.57135
-9.4623
-9.31657
-9.1285
-8.89353
-8.60673
-8.2631
-7.85784
-7.38664
-6.84602
-6.23369
-5.54901
-4.79331
-3.97012
-3.08535
-2.14711
-1.16548
-0.152012
0.880859
1.92045
2.95451
3.97168
4.96195
5.91683
6.82949
7.69463
8.50958
9.27397
9.99118
10.6619
11.2835
11.8578
12.3867
12.8721
13.3167
13.7231
14.0935
14.4303
14.7361
15.0133
15.2643
15.4913
15.6966
15.882
16.0495
16.2005
16.3368
16.4596
16.5703
16.6701
16.7599
16.8407
16.9134
16.9788
17.0376
17.0903
17.1376
17.18
17.2179
17.2519
17.2822
17.3091
17.3331
17.3544
17.3731
17.3896
17.4041
17.4167
17.4275
17.4369
17.4447
17.4513
17.4567
17.4609
17.4641
17.4663
17.4676
17.4681
17.4678
17.4668
17.4651
17.4627
17.4597
17.4561
17.452
17.4473
17.4421
17.4365
17.4305
17.4241
17.4175
17.4107
17.4039
17.3972
17.3909
17.3854
17.3811
17.3787
17.379
17.3834
17.3935
17.4116
17.438
17.4794
17.4986
-5.1528
-5.1652
-5.17879
-5.18827
-5.1957
-5.20283
-5.21031
-5.21849
-5.2277
-5.23822
-5.2503
-5.2642
-5.28012
-5.29829
-5.31888
-5.34208
-5.368
-5.39675
-5.42843
-5.46307
-5.50073
-5.54143
-5.58516
-5.63192
-5.68171
-5.73449
-5.79023
-5.8489
-5.91045
-5.97484
-6.04203
-6.11196
-6.18459
-6.25986
-6.33772
-6.41812
-6.501
-6.5863
-6.67396
-6.76391
-6.8561
-6.95045
-7.0469
-7.14535
-7.24574
-7.34796
-7.45191
-7.55749
-7.66457
-7.77302
-7.88268
-7.99338
-8.10495
-8.21716
-8.32978
-8.44253
-8.55511
-8.66716
-8.7783
-8.88808
-8.99598
-9.10143
-9.20377
-9.30225
-9.39603
-9.48413
-9.56547
-9.63878
-9.70266
-9.75548
-9.79543
-9.82043
-9.82808
-9.81569
-9.78048
-9.71959
-9.62912
-9.50313
-9.33602
-9.12318
-8.8593
-8.53892
-8.15662
-7.70734
-7.18673
-6.59161
-5.92044
-5.17382
-4.35482
-3.46916
-2.52515
-1.53346
-0.506511
0.542253
1.59897
2.65036
3.68403
4.68922
5.65682
6.58041
7.45584
8.28381
9.06373
9.79322
10.472
11.1005
11.6808
12.2152
12.7058
13.1555
13.5667
13.942
14.2839
14.5948
14.8772
15.1335
15.3658
15.5763
15.767
15.9395
16.0956
16.2368
16.3645
16.4799
16.5841
16.6782
16.7632
16.8399
16.9092
16.9715
17.0278
17.0784
17.124
17.165
17.2017
17.2347
17.2643
17.2907
17.3143
17.3352
17.3538
17.3702
17.3847
17.3973
17.4083
17.4177
17.4258
17.4325
17.438
17.4425
17.4459
17.4483
17.4498
17.4505
17.4504
17.4496
17.448
17.4458
17.4429
17.4394
17.4353
17.4307
17.4257
17.4201
17.4142
17.408
17.4015
17.3948
17.3883
17.382
17.3763
17.3716
17.3684
17.3674
17.3695
17.3757
17.3875
17.4034
17.428
17.4235
-5.13738
-5.1515
-5.16722
-5.1785
-5.18758
-5.19638
-5.20555
-5.21546
-5.22641
-5.23866
-5.25246
-5.268
-5.2855
-5.30514
-5.32709
-5.35149
-5.37848
-5.40814
-5.44057
-5.47582
-5.51394
-5.55495
-5.59887
-5.64571
-5.69545
-5.74809
-5.8036
-5.86197
-5.92315
-5.98712
-6.05384
-6.12326
-6.19536
-6.27009
-6.3474
-6.42724
-6.50958
-6.59436
-6.68152
-6.77102
-6.8628
-6.9568
-7.05295
-7.15119
-7.25144
-7.35362
-7.45764
-7.5634
-7.67078
-7.77967
-7.88993
-8.00141
-8.11392
-8.22728
-8.34127
-8.45564
-8.5701
-8.68432
-8.79796
-8.91058
-9.02171
-9.13082
-9.2373
-9.34045
-9.43949
-9.5335
-9.62146
-9.7022
-9.77438
-9.83647
-9.88675
-9.92323
-9.9436
-9.94528
-9.92557
-9.88166
-9.8095
-9.70312
-9.5569
-9.36592
-9.12454
-8.8268
-8.46661
-8.03806
-7.53582
-6.95563
-6.29492
-5.55342
-4.73369
-3.84131
-2.88488
-1.87602
-0.828419
0.243025
1.32269
2.39598
3.44915
4.47121
5.45363
6.39243
7.28496
8.12706
8.916
9.65144
10.3344
10.9663
11.5493
12.086
12.5788
13.0306
13.4441
13.8217
14.1662
14.4799
14.7654
15.025
15.2608
15.4749
15.6692
15.8455
16.0053
16.1503
16.2817
16.4007
16.5085
16.6062
16.6946
16.7747
16.8471
16.9126
16.9718
17.0253
17.0736
17.1172
17.1565
17.1918
17.2237
17.2523
17.2779
17.3008
17.3212
17.3394
17.3555
17.3698
17.3822
17.3931
17.4025
17.4105
17.4172
17.4228
17.4272
17.4307
17.4332
17.4347
17.4355
17.4354
17.4346
17.4331
17.4308
17.428
17.4245
17.4204
17.4158
17.4107
17.4052
17.3992
17.3929
17.3865
17.3799
17.3735
17.3675
17.3621
17.3578
17.355
17.3544
17.3565
17.3616
17.3676
17.3774
17.3536
-5.13098
-5.14554
-5.16203
-5.17417
-5.18416
-5.19392
-5.20414
-5.21515
-5.22726
-5.24074
-5.2558
-5.27264
-5.29142
-5.31232
-5.33546
-5.36098
-5.38898
-5.41954
-5.45274
-5.48863
-5.52727
-5.56867
-5.61287
-5.65986
-5.70966
-5.76225
-5.81764
-5.8758
-5.93671
-6.00036
-6.0667
-6.13572
-6.20739
-6.28166
-6.35851
-6.4379
-6.51979
-6.60415
-6.69092
-6.78008
-6.87156
-6.96533
-7.06132
-7.15948
-7.25974
-7.36204
-7.4663
-7.57241
-7.6803
-7.78985
-7.90093
-8.0134
-8.12712
-8.24189
-8.35753
-8.47379
-8.59043
-8.70713
-8.82357
-8.93935
-9.05403
-9.16712
-9.27804
-9.38615
-9.49071
-9.59087
-9.68566
-9.77399
-9.85459
-9.92601
-9.98662
-10.0345
-10.0675
-10.083
-10.0784
-10.051
-9.9967
-9.90957
-9.78386
-9.61433
-9.395
-9.11939
-8.78071
-8.37213
-7.88724
-7.32053
-6.66813
-5.92873
-5.10427
-4.20015
-3.22537
-2.19298
-1.11856
-0.0188028
1.08826
2.18713
3.26342
4.30749
5.31261
6.27045
7.17569
8.02572
8.81956
9.55777
10.2419
10.874
11.4568
11.9929
12.4852
12.9365
13.3497
13.7275
14.0724
14.387
14.6738
14.9349
15.1726
15.3889
15.5856
15.7644
15.927
16.0747
16.2089
16.3308
16.4415
16.542
16.6332
16.716
16.7911
16.8592
16.921
16.977
17.0277
17.0736
17.1151
17.1526
17.1864
17.217
17.2444
17.2691
17.2912
17.311
17.3287
17.3443
17.3582
17.3703
17.381
17.3901
17.398
17.4046
17.41
17.4144
17.4178
17.4202
17.4217
17.4224
17.4223
17.4214
17.4198
17.4175
17.4145
17.4109
17.4067
17.402
17.3968
17.3911
17.385
17.3785
17.3719
17.3653
17.3587
17.3525
17.3469
17.3422
17.3386
17.3362
17.3349
17.3316
17.3287
17.2892
-5.1321
-5.146
-5.16205
-5.17422
-5.18441
-5.19448
-5.2051
-5.21661
-5.22934
-5.24353
-5.2594
-5.27711
-5.29681
-5.31864
-5.3427
-5.36909
-5.3979
-5.42919
-5.46304
-5.49947
-5.53854
-5.58028
-5.62471
-5.67184
-5.72168
-5.77424
-5.82951
-5.88749
-5.94817
-6.01152
-6.07754
-6.1462
-6.21748
-6.29136
-6.36782
-6.44682
-6.52834
-6.61236
-6.69883
-6.78773
-6.87903
-6.97267
-7.06862
-7.16683
-7.26725
-7.36982
-7.47446
-7.58112
-7.68969
-7.80008
-7.91219
-8.02589
-8.14104
-8.25748
-8.37502
-8.49345
-8.61253
-8.73199
-8.85151
-8.97073
-9.08924
-9.20657
-9.3222
-9.4355
-9.54579
-9.65227
-9.75403
-9.85002
-9.93904
-10.0197
-10.0905
-10.1495
-10.1947
-10.2236
-10.2336
-10.222
-10.1847
-10.116
-10.0101
-9.86126
-9.66326
-9.4091
-9.09128
-8.70205
-8.23379
-7.67957
-7.03387
-6.29405
-5.46141
-4.54125
-3.54296
-2.48186
-1.37589
-0.243053
0.896097
2.02665
3.13497
4.20608
5.23077
6.20221
7.11627
7.97132
8.76728
9.50542
10.1879
10.8174
11.397
11.9298
12.419
12.8675
13.2784
13.6543
13.9979
14.3118
14.5982
14.8596
15.0979
15.3152
15.5133
15.6937
15.858
16.0077
16.144
16.2681
16.3811
16.4839
16.5775
16.6626
16.74
16.8104
16.8744
16.9325
16.9853
17.0332
17.0767
17.1161
17.1518
17.1841
17.2132
17.2395
17.2632
17.2845
17.3035
17.3205
17.3356
17.349
17.3608
17.3711
17.38
17.3875
17.3939
17.3992
17.4034
17.4066
17.4089
17.4102
17.4108
17.4105
17.4094
17.4077
17.4052
17.4021
17.3983
17.3939
17.3889
17.3834
17.3774
17.371
17.3642
17.3572
17.3501
17.3429
17.3358
17.329
17.3224
17.3156
17.3081
17.2963
17.2825
17.2304
-5.13848
-5.1508
-5.16538
-5.17682
-5.18661
-5.19643
-5.20694
-5.2185
-5.23141
-5.24591
-5.26219
-5.28039
-5.30064
-5.32304
-5.34767
-5.37462
-5.40394
-5.4357
-5.46994
-5.50671
-5.54604
-5.58795
-5.63248
-5.67964
-5.72944
-5.78189
-5.837
-5.89476
-5.95518
-6.01823
-6.08392
-6.15224
-6.22316
-6.29667
-6.37277
-6.45143
-6.53264
-6.61638
-6.70262
-6.79136
-6.88255
-6.97617
-7.07218
-7.17056
-7.27126
-7.37423
-7.47942
-7.58676
-7.69618
-7.8076
-7.92092
-8.03604
-8.15282
-8.27113
-8.39079
-8.51161
-8.63337
-8.75582
-8.87866
-9.00155
-9.12412
-9.24592
-9.36646
-9.48514
-9.60133
-9.71425
-9.82303
-9.92669
-10.0241
-10.1139
-10.1946
-10.2644
-10.3213
-10.3629
-10.3867
-10.3898
-10.3684
-10.317
-10.2296
-10.1002
-9.92227
-9.68838
-9.39036
-9.01948
-8.56689
-8.02394
-7.3831
-6.64035
-5.79655
-4.85697
-3.83108
-2.73695
-1.5949
-0.422128
0.759187
1.92655
3.06434
4.1585
5.1996
6.18164
7.10148
7.95838
8.75326
9.48821
10.1661
10.7902
11.364
11.8911
12.3749
12.8187
13.2253
13.5977
13.9385
14.2502
14.5352
14.7957
15.0337
15.2511
15.4496
15.6309
15.7963
15.9474
16.0853
16.2111
16.3258
16.4305
16.526
16.6131
16.6925
16.7649
16.8308
16.8909
16.9455
16.9953
17.0406
17.0818
17.1191
17.153
17.1837
17.2116
17.2367
17.2593
17.2797
17.298
17.3143
17.3288
17.3417
17.353
17.3629
17.3714
17.3787
17.3848
17.3898
17.3937
17.3967
17.3987
17.3999
17.4002
17.3997
17.3984
17.3964
17.3937
17.3903
17.3862
17.3815
17.3761
17.3702
17.3637
17.3567
17.3493
17.3415
17.3332
17.3246
17.3156
17.3059
17.2948
17.2816
17.2623
17.2391
17.1766
-5.14748
-5.15751
-5.16977
-5.17986
-5.18877
-5.19797
-5.20806
-5.21938
-5.23219
-5.24671
-5.26309
-5.28146
-5.30191
-5.32453
-5.34938
-5.37653
-5.40604
-5.43795
-5.4723
-5.50912
-5.54846
-5.59034
-5.63478
-5.6818
-5.73142
-5.78364
-5.83849
-5.89595
-5.95604
-6.01875
-6.08408
-6.15202
-6.22257
-6.29573
-6.37149
-6.44984
-6.53077
-6.61428
-6.70035
-6.78898
-6.88014
-6.97381
-7.06999
-7.16863
-7.26971
-7.37319
-7.47903
-7.58718
-7.69758
-7.81016
-7.92484
-8.04153
-8.1601
-8.28043
-8.40237
-8.52575
-8.65036
-8.77596
-8.90228
-9.02902
-9.1558
-9.28222
-9.40779
-9.53197
-9.65413
-9.77354
-9.88936
-10.0006
-10.1063
-10.205
-10.2953
-10.3755
-10.4435
-10.4971
-10.5337
-10.5504
-10.5435
-10.5078
-10.437
-10.3251
-10.1653
-9.94963
-9.66935
-9.31476
-8.87571
-8.34186
-7.70352
-6.9555
-6.09848
-5.13773
-4.08131
-2.94624
-1.7581
-0.540956
0.680978
1.88375
3.04913
4.16333
5.2173
6.20601
7.12754
7.98229
8.77229
9.50056
10.1707
10.7866
11.3523
11.8715
12.348
12.7851
13.1861
13.5536
13.8904
14.1989
14.4815
14.7402
14.9771
15.1939
15.3923
15.5739
15.74
15.892
16.031
16.1581
16.2744
16.3806
16.4778
16.5666
16.6477
16.7219
16.7895
16.8514
16.9078
16.9592
17.0062
17.049
17.0879
17.1233
17.1555
17.1848
17.2113
17.2352
17.2568
17.2763
17.2938
17.3094
17.3233
17.3356
17.3465
17.3559
17.364
17.3709
17.3767
17.3814
17.385
17.3877
17.3894
17.3903
17.3904
17.3896
17.388
17.3857
17.3827
17.3789
17.3744
17.3692
17.3633
17.3567
17.3494
17.3415
17.3329
17.3236
17.3134
17.3022
17.2895
17.2743
17.2558
17.2297
17.1986
17.1277
-5.15655
-5.16382
-5.1731
-5.18136
-5.18915
-5.19754
-5.20707
-5.218
-5.23054
-5.24487
-5.2611
-5.27935
-5.29969
-5.3222
-5.34693
-5.37396
-5.40331
-5.43505
-5.46921
-5.50581
-5.54491
-5.58651
-5.63065
-5.67734
-5.7266
-5.77846
-5.83291
-5.88997
-5.94965
-6.01194
-6.07686
-6.1444
-6.21456
-6.28735
-6.36277
-6.44082
-6.5215
-6.60481
-6.69075
-6.77931
-6.87049
-6.96428
-7.06067
-7.15964
-7.26117
-7.36524
-7.47181
-7.58086
-7.69232
-7.80614
-7.92226
-8.04059
-8.16104
-8.28348
-8.40778
-8.53379
-8.66131
-8.79013
-8.91999
-9.05061
-9.18163
-9.31268
-9.44329
-9.57294
-9.70102
-9.82683
-9.94957
-10.0683
-10.1819
-10.2892
-10.3887
-10.4787
-10.5572
-10.622
-10.6703
-10.6994
-10.7054
-10.6831
-10.6265
-10.5294
-10.3847
-10.1841
-9.9183
-9.57677
-9.14852
-8.62221
-7.98637
-7.23224
-6.35766
-5.36767
-4.27371
-3.09452
-1.85805
-0.594293
0.667982
1.90336
3.09237
4.22158
5.28296
6.27282
7.19073
8.03846
8.81924
9.53704
10.1962
10.8012
11.3564
11.8659
12.3334
12.7626
13.1566
13.5182
13.8501
14.1546
14.4341
14.6905
14.9257
15.1415
15.3394
15.5209
15.6874
15.84
15.9798
16.108
16.2255
16.3332
16.4318
16.5221
16.6048
16.6806
16.7499
16.8133
16.8714
16.9244
16.9729
17.0172
17.0577
17.0945
17.1281
17.1588
17.1866
17.2118
17.2346
17.2553
17.2739
17.2906
17.3055
17.3188
17.3305
17.3408
17.3498
17.3575
17.364
17.3694
17.3737
17.377
17.3794
17.3808
17.3814
17.3811
17.38
17.378
17.3753
17.3718
17.3675
17.3624
17.3565
17.3498
17.3423
17.3339
17.3245
17.3141
17.3023
17.2889
17.2733
17.2544
17.231
17.199
17.161
17.0833
-5.16348
-5.16774
-5.17368
-5.17986
-5.18644
-5.19403
-5.20294
-5.2134
-5.22554
-5.23949
-5.25536
-5.27323
-5.29319
-5.31529
-5.33961
-5.3662
-5.39511
-5.42639
-5.46008
-5.4962
-5.53479
-5.57589
-5.61952
-5.66569
-5.71443
-5.76576
-5.8197
-5.87624
-5.93541
-5.9972
-6.06163
-6.12871
-6.19844
-6.27083
-6.34589
-6.42362
-6.50405
-6.58717
-6.67299
-6.76151
-6.85274
-6.94667
-7.0433
-7.14263
-7.24464
-7.34933
-7.45667
-7.56664
-7.6792
-7.7943
-7.91189
-8.03189
-8.15422
-8.27879
-8.40546
-8.53409
-8.66452
-8.79654
-8.92992
-9.06438
-9.19959
-9.3352
-9.47075
-9.60575
-9.7396
-9.87164
-10.0011
-10.127
-10.2483
-10.3638
-10.472
-10.5713
-10.6597
-10.7347
-10.794
-10.8344
-10.8519
-10.8411
-10.7964
-10.7116
-10.5794
-10.3912
-10.1371
-9.80554
-9.38432
-8.86055
-8.22154
-7.4559
-6.5583
-5.53288
-4.39381
-3.16502
-1.87865
-0.569562
0.729594
1.99182
3.19747
4.33408
5.39525
6.37911
7.28695
8.12205
8.88882
9.59218
10.2372
10.8287
11.3713
11.8693
12.3266
12.7468
13.133
13.488
13.8144
14.1145
14.3905
14.6442
14.8775
15.092
15.2892
15.4704
15.637
15.79
15.9306
16.0597
16.1783
16.2872
16.3872
16.4789
16.5631
16.6404
16.7112
16.7762
16.8358
16.8904
16.9404
16.9862
17.028
17.0663
17.1013
17.1333
17.1623
17.1888
17.2128
17.2346
17.2543
17.2721
17.288
17.3022
17.3149
17.326
17.3358
17.3443
17.3515
17.3576
17.3626
17.3666
17.3695
17.3715
17.3726
17.3728
17.3721
17.3706
17.3682
17.3649
17.3608
17.3559
17.35
17.3432
17.3354
17.3264
17.3163
17.3047
17.2914
17.276
17.2576
17.2352
17.2074
17.1702
17.1262
17.043
-5.16657
-5.16785
-5.17043
-5.17447
-5.17986
-5.18662
-5.19488
-5.20474
-5.21631
-5.2297
-5.24497
-5.26223
-5.28155
-5.303
-5.32664
-5.35253
-5.38073
-5.4113
-5.44426
-5.47967
-5.51755
-5.55794
-5.60086
-5.64634
-5.69441
-5.74507
-5.79835
-5.85426
-5.91281
-5.97402
-6.03789
-6.10444
-6.17368
-6.24562
-6.32029
-6.39769
-6.47784
-6.56076
-6.64645
-6.73492
-6.82619
-6.92026
-7.01714
-7.11684
-7.21934
-7.32465
-7.43277
-7.54367
-7.65732
-7.7737
-7.89275
-8.01442
-8.13863
-8.2653
-8.39431
-8.52555
-8.65885
-8.79403
-8.93086
-9.06909
-9.20842
-9.34849
-9.48888
-9.6291
-9.76859
-9.90669
-10.0426
-10.1755
-10.3043
-10.4277
-10.5444
-10.6526
-10.7504
-10.8354
-10.905
-10.9564
-10.9843
-10.9834
-10.9487
-10.8741
-10.7519
-10.5731
-10.3269
-10.0008
-9.581
-9.05257
-8.40067
-7.61249
-6.68152
-5.61213
-4.42169
-3.13968
-1.80376
-0.453536
0.875354
2.15513
3.3671
4.50075
5.55198
6.52114
7.41145
8.22771
8.97545
9.66039
10.2881
10.8637
11.3919
11.8772
12.3234
12.7339
13.1117
13.4598
13.7804
14.0758
14.3481
14.5991
14.8304
15.0435
15.2399
15.4208
15.5874
15.7409
15.8821
16.0122
16.1318
16.2419
16.3432
16.4363
16.522
16.6007
16.6731
16.7396
16.8007
16.8567
16.9082
16.9554
16.9987
17.0384
17.0748
17.108
17.1384
17.166
17.1912
17.2141
17.2349
17.2537
17.2706
17.2858
17.2994
17.3114
17.322
17.3313
17.3393
17.3461
17.3517
17.3563
17.3598
17.3624
17.364
17.3647
17.3644
17.3633
17.3612
17.3582
17.3543
17.3495
17.3436
17.3367
17.3286
17.3192
17.3083
17.2957
17.2809
17.2635
17.2426
17.217
17.1852
17.1434
17.0944
17.0066
-5.16464
-5.16331
-5.16287
-5.16485
-5.16896
-5.17477
-5.1822
-5.19128
-5.20208
-5.21468
-5.22915
-5.24557
-5.26403
-5.2846
-5.30734
-5.33234
-5.35963
-5.38929
-5.42135
-5.45587
-5.49287
-5.5324
-5.57449
-5.61915
-5.66642
-5.71631
-5.76884
-5.82404
-5.8819
-5.94245
-6.00571
-6.07168
-6.14039
-6.21186
-6.2861
-6.36314
-6.443
-6.5257
-6.61124
-6.69966
-6.79096
-6.88515
-6.98226
-7.0823
-7.18527
-7.29118
-7.40004
-7.51183
-7.62655
-7.74415
-7.86461
-7.98788
-8.1139
-8.2426
-8.37387
-8.50761
-8.64367
-8.78189
-8.92205
-9.06391
-9.20719
-9.35155
-9.49659
-9.64184
-9.78675
-9.93067
-10.0729
-10.2124
-10.3484
-10.4794
-10.6042
-10.7209
-10.8276
-10.922
-11.0018
-11.0636
-11.1007
-11.108
-11.0815
-11.0149
-10.9
-10.727
-10.484
-10.1575
-9.73168
-9.1896
-8.51424
-7.69139
-6.71441
-5.5898
-4.34006
-3.00161
-1.61843
-0.234437
1.11313
2.39736
3.602
4.7197
5.74937
6.69395
7.55861
8.34954
9.07322
9.73591
10.3435
10.9011
11.4136
11.8852
12.3196
12.72
13.0894
13.4304
13.7453
14.0362
14.3049
14.5532
14.7826
14.9945
15.1902
15.3709
15.5376
15.6916
15.8336
15.9645
16.0853
16.1966
16.2992
16.3938
16.4809
16.5611
16.635
16.703
16.7656
16.8231
16.8761
16.9248
16.9695
17.0106
17.0483
17.0828
17.1144
17.1433
17.1697
17.1937
17.2156
17.2354
17.2533
17.2695
17.2839
17.2968
17.3082
17.3183
17.3271
17.3346
17.3409
17.3461
17.3502
17.3534
17.3555
17.3567
17.3569
17.3561
17.3544
17.3517
17.348
17.3433
17.3374
17.3304
17.322
17.3121
17.3006
17.2869
17.2708
17.2515
17.2283
17.1998
17.1645
17.1187
17.0653
16.9739
-5.15751
-5.15414
-5.15127
-5.15141
-5.15413
-5.15878
-5.16515
-5.17323
-5.18305
-5.19466
-5.20812
-5.22352
-5.24094
-5.26045
-5.28214
-5.30606
-5.33231
-5.36092
-5.39196
-5.42547
-5.46149
-5.50006
-5.54121
-5.58498
-5.63137
-5.68042
-5.73215
-5.78657
-5.8437
-5.90356
-5.96616
-6.03152
-6.09967
-6.17063
-6.24443
-6.32108
-6.40062
-6.48306
-6.56843
-6.65675
-6.74803
-6.8423
-6.93958
-7.0399
-7.14327
-7.24971
-7.35922
-7.47182
-7.58748
-7.7062
-7.82794
-7.95267
-8.08034
-8.21089
-8.34424
-8.48028
-8.61889
-8.7599
-8.90313
-9.04835
-9.19528
-9.34361
-9.49295
-9.64284
-9.79276
-9.94206
-10.09
-10.2358
-10.3782
-10.5163
-10.6484
-10.7729
-10.8877
-10.9909
-11.0802
-11.1509
-11.1953
-11.2088
-11.1886
-11.1277
-11.0173
-10.8466
-10.6026
-10.2698
-9.83063
-9.26556
-8.55548
-7.68499
-6.64822
-5.45556
-4.13717
-2.73891
-1.31234
0.0951198
1.44666
2.71864
3.89938
4.98602
5.98121
6.89063
7.7213
8.48056
9.17548
9.81256
10.3976
10.9358
11.4316
11.889
12.3114
12.7018
13.0628
13.397
13.7065
13.9932
14.2588
14.5047
14.7325
14.9435
15.1387
15.3194
15.4865
15.6411
15.784
15.916
16.038
16.1506
16.2547
16.3507
16.4393
16.5211
16.5965
16.666
16.7302
16.7893
16.8437
16.8939
16.94
16.9825
17.0216
17.0574
17.0903
17.1204
17.148
17.1732
17.1962
17.217
17.236
17.253
17.2684
17.2822
17.2945
17.3053
17.3148
17.3231
17.3301
17.3359
17.3407
17.3444
17.3471
17.3487
17.3494
17.349
17.3477
17.3453
17.3418
17.3372
17.3314
17.3243
17.3157
17.3054
17.2932
17.2786
17.2612
17.2403
17.215
17.1838
17.1454
17.0961
17.0389
16.9447
-5.14591
-5.14106
-5.13635
-5.13481
-5.13603
-5.13927
-5.14431
-5.15111
-5.15967
-5.17002
-5.18224
-5.19638
-5.21255
-5.23082
-5.25128