/*--------------------------------*- C++ -*----------------------------------*\
| =========                 |                                                 |
| \\      /  F ield         | OpenFOAM: The Open Source CFD Toolbox           |
|  \\    /   O peration     | Version:  1.4.2                                 |
|   \\  /    A nd           | Web:      http://www.openfoam.org               |
|    \\/     M anipulation  |                                                 |
\*---------------------------------------------------------------------------*/
FoamFile
{
    version     2.0;
    format      ascii;
    class       surfaceScalarField;
    object      phi;
    location    "400";
}
// * * * * * * * * * * * * * * * * * * * * * * * * * * * * * * * * * * * * * //

dimensions      [0 3 -1 0 0 0 0];

internalField   nonuniform List<scalar> 
24170
(
3.03917e-06
9.47238e-08
2.96654e-06
7.26253e-08
2.90188e-06
6.46703e-08
2.84058e-06
6.1299e-08
2.78273e-06
5.7852e-08
2.72855e-06
5.41746e-08
2.67798e-06
5.05731e-08
2.63085e-06
4.71305e-08
2.58701e-06
4.38399e-08
2.54632e-06
4.06916e-08
2.50863e-06
3.76854e-08
2.47382e-06
3.48117e-08
2.44177e-06
3.20482e-08
2.41241e-06
2.93621e-08
2.38573e-06
2.66793e-08
2.36191e-06
2.38282e-08
2.34142e-06
2.04851e-08
1.06944e-08
2.33073e-06
3.46198e-06
8.91948e-08
3.45381e-06
8.07914e-08
3.44431e-06
7.41707e-08
3.43361e-06
7.19999e-08
3.42197e-06
6.94961e-08
3.40978e-06
6.63651e-08
3.39727e-06
6.30886e-08
3.38457e-06
5.98284e-08
3.3718e-06
5.66014e-08
3.35909e-06
5.34085e-08
3.34652e-06
5.02557e-08
3.33419e-06
4.71351e-08
3.32223e-06
4.4014e-08
3.31077e-06
4.08283e-08
3.30001e-06
3.74416e-08
3.2903e-06
3.35423e-08
3.28245e-06
2.83379e-08
1.92377e-08
3.2739e-06
3.82431e-06
7.70812e-08
3.82625e-06
7.8854e-08
3.82549e-06
7.49255e-08
3.82387e-06
7.36257e-08
3.8216e-06
7.17668e-08
3.81886e-06
6.91086e-08
3.81579e-06
6.61584e-08
3.81249e-06
6.31284e-08
3.80902e-06
6.0066e-08
3.80544e-06
5.69853e-08
3.8018e-06
5.38944e-08
3.79816e-06
5.07827e-08
3.79457e-06
4.76083e-08
3.79111e-06
4.42884e-08
3.78789e-06
4.06661e-08
3.785e-06
3.64352e-08
3.7823e-06
3.10356e-08
2.3456e-08
3.77808e-06
4.21688e-06
6.47642e-08
4.22206e-06
7.36726e-08
4.22418e-06
7.28072e-08
4.22536e-06
7.24488e-08
4.22597e-06
7.11546e-08
4.22615e-06
6.89262e-08
4.22604e-06
6.62729e-08
4.22572e-06
6.34409e-08
4.22528e-06
6.05108e-08
4.22475e-06
5.7515e-08
4.22418e-06
5.44674e-08
4.2236e-06
5.13593e-08
4.22306e-06
4.81487e-08
4.2226e-06
4.47533e-08
4.22223e-06
4.10325e-08
4.22192e-06
3.67553e-08
4.22133e-06
3.16196e-08
2.53604e-08
4.21943e-06
4.64867e-06
5.33987e-08
4.65538e-06
6.69706e-08
4.65918e-06
6.9004e-08
4.66189e-06
6.97382e-08
4.66398e-06
6.90659e-08
4.66562e-06
6.72881e-08
4.66694e-06
6.49509e-08
4.66805e-06
6.23346e-08
4.669e-06
5.95523e-08
4.66986e-06
5.66557e-08
4.67066e-06
5.36684e-08
4.67144e-06
5.05872e-08
4.67221e-06
4.73779e-08
4.67299e-06
4.39716e-08
4.67376e-06
4.02627e-08
4.67441e-06
3.61079e-08
4.67464e-06
3.1392e-08
2.61796e-08
4.67382e-06
5.12453e-06
4.34641e-08
5.13192e-06
5.95784e-08
5.13693e-06
6.40021e-08
5.14083e-06
6.58333e-08
5.14403e-06
6.58676e-08
5.14671e-06
6.46098e-08
5.14902e-06
6.26403e-08
5.15107e-06
6.02795e-08
5.15295e-06
5.76781e-08
5.15469e-06
5.49122e-08
5.15634e-06
5.20187e-08
5.15792e-06
4.90045e-08
5.15946e-06
4.58481e-08
5.16093e-06
4.2502e-08
5.16229e-06
3.89009e-08
5.16342e-06
3.49769e-08
5.16408e-06
3.07282e-08
2.63368e-08
5.16393e-06
5.64936e-06
3.51118e-08
5.65689e-06
5.20511e-08
5.66268e-06
5.82133e-08
5.66752e-06
6.09958e-08
5.67166e-06
6.17258e-08
5.67525e-06
6.10214e-08
5.67842e-06
5.947e-08
5.68128e-06
5.74189e-08
5.68391e-06
5.50489e-08
5.68636e-06
5.24598e-08
5.68867e-06
4.97049e-08
5.69087e-06
4.68057e-08
5.69296e-06
4.37586e-08
5.69492e-06
4.05415e-08
5.6967e-06
3.71274e-08
5.69817e-06
3.35042e-08
5.69917e-06
2.9728e-08
2.59965e-08
5.69951e-06
4.41118e-06
3.00406e-08
4.41645e-06
4.6787e-08
4.42091e-06
5.3756e-08
4.42478e-06
5.71258e-08
4.4282e-06
5.83011e-08
4.43125e-06
5.79723e-08
4.43399e-06
5.67261e-08
4.4365e-06
5.49159e-08
4.43881e-06
5.27368e-08
4.44097e-06
5.03023e-08
4.443e-06
4.76771e-08
4.44491e-06
4.48934e-08
4.44671e-06
4.19609e-08
4.44837e-06
3.88758e-08
4.44987e-06
3.56347e-08
4.45112e-06
3.22546e-08
4.45203e-06
2.88113e-08
2.54841e-08
4.45254e-06
5.14457e-06
2.53237e-08
5.15001e-06
4.13533e-08
5.15494e-06
4.88278e-08
5.15941e-06
5.26572e-08
5.16347e-06
5.42387e-08
5.16716e-06
5.42803e-08
5.17054e-06
5.33513e-08
5.17365e-06
5.18049e-08
5.17654e-06
4.98459e-08
5.17924e-06
4.7599e-08
5.18178e-06
4.51392e-08
5.18416e-06
4.25099e-08
5.18639e-06
3.97346e-08
5.18844e-06
3.68269e-08
5.19027e-06
3.38044e-08
5.19182e-06
3.07047e-08
5.19302e-06
2.76104e-08
2.46767e-08
5.19383e-06
6.00008e-06
2.10392e-08
6.00555e-06
3.58835e-08
6.01084e-06
4.35379e-08
6.01584e-06
4.76551e-08
6.02052e-06
4.95628e-08
6.02486e-06
4.99409e-08
6.02889e-06
4.93211e-08
6.03264e-06
4.80476e-08
6.03616e-06
4.63294e-08
6.03946e-06
4.42982e-08
6.04256e-06
4.20382e-08
6.04547e-06
3.9603e-08
6.04818e-06
3.70288e-08
6.05066e-06
3.43447e-08
6.05288e-06
3.15838e-08
6.05479e-06
2.87958e-08
6.05634e-06
2.60601e-08
2.35047e-08
6.05751e-06
6.99808e-06
1.72236e-08
7.00346e-06
3.05051e-08
7.009e-06
3.79983e-08
7.01444e-06
4.22112e-08
7.01968e-06
4.43314e-08
7.02463e-06
4.49828e-08
7.02931e-06
4.46425e-08
7.03373e-06
4.36351e-08
7.03789e-06
4.21668e-08
7.04182e-06
4.03723e-08
7.04551e-06
3.83417e-08
7.04898e-06
3.61372e-08
7.0522e-06
3.38054e-08
7.05516e-06
3.13866e-08
7.05782e-06
2.89236e-08
7.06015e-06
2.64701e-08
7.06211e-06
2.4096e-08
2.19019e-08
7.06371e-06
8.16238e-06
1.38629e-08
8.16756e-06
2.53208e-08
8.17324e-06
3.23193e-08
8.17903e-06
3.64248e-08
8.18474e-06
3.86218e-08
8.19026e-06
3.94598e-08
8.19555e-06
3.935e-08
8.2006e-06
3.85867e-08
8.2054e-06
3.73656e-08
8.20996e-06
3.58194e-08
8.21426e-06
3.40409e-08
8.2183e-06
3.20973e-08
8.22206e-06
3.00419e-08
8.22553e-06
2.79213e-08
8.22867e-06
2.57824e-08
8.23146e-06
2.36762e-08
8.2339e-06
2.16602e-08
1.98098e-08
8.23599e-06
9.52069e-06
1.09025e-08
9.52562e-06
2.03918e-08
9.53134e-06
2.65928e-08
9.53738e-06
3.0384e-08
9.5435e-06
3.2511e-08
9.54952e-06
3.34331e-08
9.55538e-06
3.34907e-08
9.56103e-06
3.29372e-08
9.56645e-06
3.19507e-08
9.57161e-06
3.06562e-08
9.57651e-06
2.91442e-08
9.58112e-06
2.74832e-08
9.58544e-06
2.57286e-08
9.58943e-06
2.39283e-08
9.59308e-06
2.21277e-08
9.59639e-06
2.03713e-08
9.59934e-06
1.87038e-08
1.71795e-08
9.60197e-06
1.11053e-05
8.26273e-09
1.111e-05
1.57263e-08
1.11157e-05
2.08768e-08
1.1122e-05
2.41502e-08
1.11284e-05
2.60562e-08
1.11349e-05
2.69517e-08
1.11413e-05
2.71035e-08
1.11475e-05
2.67175e-08
1.11535e-05
2.59458e-08
1.11593e-05
2.48993e-08
1.11648e-05
2.36613e-08
1.11699e-05
2.22964e-08
1.11748e-05
2.08571e-08
1.11794e-05
1.93883e-08
1.11835e-05
1.79299e-08
1.11874e-05
1.65181e-08
1.11909e-05
1.51859e-08
1.39711e-08
1.11941e-05
1.2954e-05
5.8508e-09
1.29585e-05
1.12758e-08
1.29642e-05
1.51772e-08
1.29706e-05
1.77409e-08
1.29774e-05
1.92761e-08
1.29843e-05
2.00314e-08
1.29912e-05
2.01992e-08
1.2998e-05
1.99328e-08
1.30046e-05
1.93508e-08
1.30109e-05
1.85436e-08
1.3017e-05
1.75811e-08
1.30228e-05
1.65186e-08
1.30283e-05
1.54013e-08
1.30334e-05
1.42672e-08
1.30382e-05
1.31484e-08
1.30426e-05
1.20724e-08
1.30467e-05
1.10623e-08
1.01437e-08
1.30506e-05
1.51107e-05
3.56228e-09
1.51151e-05
6.92956e-09
1.51208e-05
9.42311e-09
1.51275e-05
1.11039e-08
1.51346e-05
1.21261e-08
1.5142e-05
1.26316e-08
1.51495e-05
1.27376e-08
1.51569e-05
1.25411e-08
1.51641e-05
1.21212e-08
1.51711e-05
1.1541e-08
1.51778e-05
1.0851e-08
1.51843e-05
1.00924e-08
1.51904e-05
9.29914e-09
1.51961e-05
8.49925e-09
1.52016e-05
7.71591e-09
1.52067e-05
6.96807e-09
1.52115e-05
6.27088e-09
5.64155e-09
1.5216e-05
1.76267e-05
1.26637e-09
1.76312e-05
2.48864e-09
1.76372e-05
3.42326e-09
1.76442e-05
4.06728e-09
1.76519e-05
4.45083e-09
1.76599e-05
4.61224e-09
1.76681e-05
4.59032e-09
1.76762e-05
4.42208e-09
1.76842e-05
4.14137e-09
1.76919e-05
3.7782e-09
1.76994e-05
3.35885e-09
1.77066e-05
2.90607e-09
1.77135e-05
2.43938e-09
1.772e-05
1.97526e-09
1.77262e-05
1.52728e-09
1.7732e-05
1.10635e-09
1.77376e-05
7.21194e-10
3.82964e-10
1.77428e-05
1.78284e-05
-9.32157e-10
1.78327e-05
-1.78304e-09
1.78385e-05
-2.36778e-09
1.78453e-05
-2.74299e-09
1.78527e-05
-2.99359e-09
1.78605e-05
-3.18055e-09
1.78684e-05
-3.34031e-09
1.78763e-05
-3.49401e-09
1.78841e-05
-3.6522e-09
1.78917e-05
-3.81789e-09
1.78991e-05
-3.98927e-09
1.79062e-05
-4.1619e-09
1.79129e-05
-4.33026e-09
1.79194e-05
-4.48866e-09
1.79255e-05
-4.63193e-09
1.79314e-05
-4.75566e-09
1.7937e-05
-4.85588e-09
-4.92576e-09
1.79423e-05
1.58834e-05
-3.01548e-09
1.58874e-05
-5.77401e-09
1.58927e-05
-7.69339e-09
1.58989e-05
-8.92419e-09
1.59056e-05
-9.68632e-09
1.59126e-05
-1.01383e-08
1.59196e-05
-1.03851e-08
1.59266e-05
-1.05003e-08
1.59335e-05
-1.05332e-08
1.59402e-05
-1.05149e-08
1.59467e-05
-1.04638e-08
1.59529e-05
-1.03905e-08
1.59589e-05
-1.03005e-08
1.59646e-05
-1.01965e-08
1.597e-05
-1.00795e-08
1.59752e-05
-9.9499e-09
1.59802e-05
-9.80694e-09
-9.64688e-09
1.59849e-05
1.41508e-05
-5.1871e-09
1.41549e-05
-9.80859e-09
1.41601e-05
-1.28975e-08
1.4166e-05
-1.48065e-08
1.41722e-05
-1.59377e-08
1.41786e-05
-1.65484e-08
1.4185e-05
-1.6808e-08
1.41914e-05
-1.68378e-08
1.41976e-05
-1.67208e-08
1.42036e-05
-1.65108e-08
1.42093e-05
-1.62421e-08
1.42149e-05
-1.59366e-08
1.42202e-05
-1.56079e-08
1.42253e-05
-1.5265e-08
1.42301e-05
-1.49134e-08
1.42347e-05
-1.45567e-08
1.42391e-05
-1.41968e-08
-1.38322e-08
1.42433e-05
1.26075e-05
-7.63544e-09
1.26118e-05
-1.41314e-08
1.26171e-05
-1.81917e-08
1.26229e-05
-2.05728e-08
1.26288e-05
-2.1913e-08
1.26348e-05
-2.25608e-08
1.26408e-05
-2.27444e-08
1.26466e-05
-2.26293e-08
1.26522e-05
-2.23259e-08
1.26576e-05
-2.19049e-08
1.26627e-05
-2.14119e-08
1.26677e-05
-2.08765e-08
1.26724e-05
-2.03178e-08
1.26769e-05
-1.97485e-08
1.26811e-05
-1.91774e-08
1.26852e-05
-1.86104e-08
1.2689e-05
-1.80512e-08
-1.75005e-08
1.26927e-05
1.12327e-05
-1.05779e-08
1.12376e-05
-1.89416e-08
1.1243e-05
-2.36884e-08
1.12488e-05
-2.62956e-08
1.12545e-05
-2.76667e-08
1.12602e-05
-2.82166e-08
1.12657e-05
-2.82267e-08
1.12709e-05
-2.79009e-08
1.1276e-05
-2.73699e-08
1.12808e-05
-2.67147e-08
1.12854e-05
-2.5987e-08
1.12897e-05
-2.52204e-08
1.12938e-05
-2.44367e-08
1.12977e-05
-2.36505e-08
1.13014e-05
-2.28716e-08
1.13049e-05
-2.21075e-08
1.13082e-05
-2.13634e-08
-2.06425e-08
1.13114e-05
1.00083e-05
-1.42853e-08
1.00138e-05
-2.43844e-08
1.00195e-05
-2.93956e-08
1.00251e-05
-3.19395e-08
1.00306e-05
-3.31467e-08
1.00358e-05
-3.34559e-08
1.00408e-05
-3.31943e-08
1.00455e-05
-3.25959e-08
1.00499e-05
-3.18011e-08
1.00541e-05
-3.08937e-08
1.0058e-05
-2.99263e-08
1.00618e-05
-2.89325e-08
1.00653e-05
-2.79334e-08
1.00686e-05
-2.6943e-08
1.00717e-05
-2.59708e-08
1.00746e-05
-2.50246e-08
1.00773e-05
-2.41109e-08
-2.32362e-08
1.00799e-05
8.9179e-06
-1.90819e-08
8.92402e-06
-3.05062e-08
8.92981e-06
-3.51896e-08
8.93522e-06
-3.73479e-08
8.94027e-06
-3.81927e-08
8.94494e-06
-3.81272e-08
8.94926e-06
-3.75128e-08
8.95326e-06
-3.65984e-08
8.95698e-06
-3.55215e-08
8.96045e-06
-3.43601e-08
8.96368e-06
-3.31622e-08
8.96671e-06
-3.19572e-08
8.96954e-06
-3.07631e-08
8.97219e-06
-2.95906e-08
8.97466e-06
-2.84471e-08
8.97698e-06
-2.73389e-08
8.97914e-06
-2.62735e-08
-2.52622e-08
8.98117e-06
7.94689e-06
-2.53084e-08
7.95357e-06
-3.71844e-08
7.95917e-06
-4.07829e-08
7.96406e-06
-4.22383e-08
7.96842e-06
-4.2552e-08
7.97231e-06
-4.20162e-08
7.9758e-06
-4.10064e-08
7.97897e-06
-3.97677e-08
7.98187e-06
-3.84205e-08
7.98454e-06
-3.70284e-08
7.98701e-06
-3.56291e-08
7.9893e-06
-3.4245e-08
7.99142e-06
-3.28884e-08
7.9934e-06
-3.15655e-08
7.99523e-06
-3.02796e-08
7.99693e-06
-2.90336e-08
7.99849e-06
-2.78347e-08
-2.66989e-08
7.99993e-06
7.08226e-06
-3.32337e-08
7.08911e-06
-4.40332e-08
7.09403e-06
-4.57056e-08
7.09801e-06
-4.62187e-08
7.10137e-06
-4.59146e-08
7.10424e-06
-4.48864e-08
7.10674e-06
-4.34969e-08
7.10894e-06
-4.19685e-08
7.11091e-06
-4.03922e-08
7.11269e-06
-3.88111e-08
7.11432e-06
-3.72506e-08
7.1158e-06
-3.57256e-08
7.11715e-06
-3.42427e-08
7.11839e-06
-3.28034e-08
7.11952e-06
-3.14059e-08
7.12053e-06
-3.0047e-08
7.12143e-06
-2.87286e-08
-2.74652e-08
7.12219e-06
6.3122e-06
-4.29212e-08
6.3184e-06
-5.0232e-08
6.32199e-06
-4.92943e-08
6.3246e-06
-4.8825e-08
6.32661e-06
-4.79322e-08
6.32818e-06
-4.64553e-08
6.32942e-06
-4.47359e-08
6.33042e-06
-4.29654e-08
6.33123e-06
-4.12039e-08
6.3319e-06
-3.9475e-08
6.33244e-06
-3.77934e-08
6.33288e-06
-3.61668e-08
6.33324e-06
-3.45968e-08
6.33352e-06
-3.30801e-08
6.33372e-06
-3.16088e-08
6.33384e-06
-3.01703e-08
6.33387e-06
-2.87517e-08
-2.73416e-08
6.33374e-06
5.62588e-06
-5.39007e-08
5.62975e-06
-5.4104e-08
5.63098e-06
-5.05165e-08
5.63139e-06
-4.92344e-08
5.63124e-06
-4.77831e-08
5.63068e-06
-4.58961e-08
5.62985e-06
-4.39027e-08
5.62883e-06
-4.19483e-08
5.62769e-06
-4.00584e-08
5.62645e-06
-3.82374e-08
5.62515e-06
-3.64893e-08
5.6238e-06
-3.48147e-08
5.62241e-06
-3.32107e-08
5.621e-06
-3.16704e-08
5.61957e-06
-3.01813e-08
5.61812e-06
-2.87193e-08
5.61661e-06
-2.72435e-08
-2.56318e-08
5.6149e-06
5.01055e-06
-6.21444e-08
5.00702e-06
-5.05768e-08
5.00204e-06
-4.55298e-08
4.99636e-06
-4.35562e-08
4.99017e-06
-4.15884e-08
4.98372e-06
-3.94471e-08
4.97717e-06
-3.73547e-08
4.97061e-06
-3.53798e-08
4.96407e-06
-3.35167e-08
4.95759e-06
-3.17552e-08
4.95119e-06
-3.00891e-08
4.94489e-06
-2.8513e-08
4.9387e-06
-2.70205e-08
4.93263e-06
-2.56039e-08
4.9267e-06
-2.42517e-08
4.92092e-06
-2.29387e-08
4.91528e-06
-2.16062e-08
-1.98126e-08
4.90946e-06
4.39441e-06
4.34383e-06
4.2983e-06
4.25474e-06
4.21316e-06
4.17371e-06
4.13636e-06
4.10098e-06
4.06746e-06
4.03571e-06
4.00562e-06
3.97711e-06
3.95009e-06
3.92448e-06
3.90023e-06
3.87729e-06
3.85569e-06
3.83587e-06
2.9742e-08
-2.97421e-08
5.92404e-08
-2.95437e-08
8.1948e-08
-2.27425e-08
9.57434e-08
-1.38178e-08
9.95365e-08
-3.81283e-09
9.28848e-08
6.63165e-09
7.61741e-08
1.66885e-08
4.98977e-08
2.62531e-08
1.47147e-08
3.5156e-08
-2.83307e-08
4.30153e-08
-7.74242e-08
4.90653e-08
-1.30948e-07
5.35008e-08
-1.87806e-07
5.68418e-08
-2.47226e-07
5.94078e-08
-3.0862e-07
6.1387e-08
-3.7154e-07
6.29178e-08
-4.3567e-07
6.41319e-08
-5.00861e-07
6.51952e-08
-5.66907e-07
6.60532e-08
-6.3356e-07
6.66605e-08
-7.00656e-07
6.71058e-08
-7.68076e-07
6.7429e-08
-8.35719e-07
6.76525e-08
-9.03506e-07
6.7794e-08
-9.71371e-07
6.78688e-08
-1.03926e-06
6.78906e-08
-1.10713e-06
6.78711e-08
-1.17495e-06
6.78202e-08
-1.24271e-06
6.77466e-08
-1.31037e-06
6.76575e-08
-1.37794e-06
6.75588e-08
-1.4454e-06
6.74556e-08
-1.51277e-06
6.73518e-08
-1.58003e-06
6.72507e-08
-1.64719e-06
6.71546e-08
-1.71427e-06
6.70652e-08
-1.78126e-06
6.69836e-08
-1.84817e-06
6.69104e-08
-1.91502e-06
6.6846e-08
-1.98181e-06
6.67902e-08
-2.04855e-06
6.67427e-08
-2.11525e-06
6.67028e-08
-2.18191e-06
6.66696e-08
-2.24854e-06
6.66421e-08
-2.31515e-06
6.66188e-08
-2.38174e-06
6.65981e-08
-2.44831e-06
6.65781e-08
-2.51486e-06
6.65566e-08
-2.58138e-06
6.65311e-08
-2.64788e-06
6.64991e-08
-2.71434e-06
6.64574e-08
-2.78074e-06
6.64025e-08
-2.84707e-06
6.63305e-08
-2.91331e-06
6.62367e-08
-2.97944e-06
6.61155e-08
-3.0454e-06
6.59605e-08
-3.11118e-06
6.57642e-08
-3.1767e-06
6.55178e-08
-3.24192e-06
6.52109e-08
-3.30676e-06
6.4832e-08
-3.37113e-06
6.43674e-08
-3.43494e-06
6.38016e-08
-3.49805e-06
6.31167e-08
-3.56034e-06
6.22922e-08
-3.62165e-06
6.13045e-08
-3.68177e-06
6.01264e-08
-3.74049e-06
5.87271e-08
-3.79756e-06
5.70714e-08
-3.85268e-06
5.51196e-08
-3.9055e-06
5.28266e-08
-3.95564e-06
5.0142e-08
-4.00265e-06
4.70099e-08
-4.04601e-06
4.33692e-08
-4.08517e-06
3.91545e-08
-4.11947e-06
3.42937e-08
-4.14818e-06
2.87063e-08
-4.17049e-06
2.2307e-08
-4.18551e-06
1.50185e-08
-4.19229e-06
6.76691e-09
-4.18981e-06
-2.47897e-09
-4.17715e-06
-1.26696e-08
-4.15338e-06
-2.37712e-08
-4.11761e-06
-3.57689e-08
-4.06902e-06
-4.85919e-08
-4.0069e-06
-6.21192e-08
-3.93071e-06
-7.61819e-08
-3.84013e-06
-9.05661e-08
-3.7351e-06
-1.0502e-07
-3.61583e-06
-1.19266e-07
-3.48281e-06
-1.33012e-07
-3.33683e-06
-1.45973e-07
-3.17894e-06
-1.57885e-07
-3.01041e-06
-1.68519e-07
-2.83271e-06
-1.77698e-07
-2.64741e-06
-1.85297e-07
-2.45616e-06
-1.91251e-07
-2.26061e-06
-1.95555e-07
-2.06235e-06
-1.98252e-07
-1.86292e-06
-1.9943e-07
-1.66371e-06
-1.99211e-07
-1.46597e-06
-1.97736e-07
-1.27081e-06
-1.95162e-07
-1.07916e-06
-1.91642e-07
-8.91832e-07
-1.87322e-07
-7.09445e-07
-1.82376e-07
-5.32594e-07
-1.76843e-07
-3.61632e-07
-1.70954e-07
-1.96208e-07
-1.65413e-07
-3.59146e-08
-1.60283e-07
1.18731e-07
-1.54642e-07
2.66878e-07
-1.48142e-07
4.08331e-07
-1.41444e-07
5.43194e-07
-1.34851e-07
6.7164e-07
-1.2844e-07
7.93887e-07
-1.22248e-07
9.10179e-07
-1.16294e-07
1.02077e-06
-1.10591e-07
1.12591e-06
-1.05145e-07
1.22585e-06
-9.99515e-08
1.32084e-06
-9.50025e-08
1.41112e-06
-9.02916e-08
1.49693e-06
-8.58127e-08
1.57848e-06
-8.15576e-08
1.65599e-06
-7.75147e-08
1.72966e-06
-7.36723e-08
1.79968e-06
-7.00216e-08
1.86625e-06
-6.6555e-08
1.92951e-06
-6.32631e-08
1.98965e-06
-6.01341e-08
2.04682e-06
-5.71583e-08
2.10115e-06
-5.43289e-08
2.1528e-06
-5.16385e-08
2.20188e-06
-4.90774e-08
2.24852e-06
-4.66369e-08
2.29284e-06
-4.43113e-08
2.33494e-06
-4.20962e-08
2.37492e-06
-3.9985e-08
2.4129e-06
-3.79696e-08
2.44894e-06
-3.6044e-08
2.48315e-06
-3.42049e-08
2.5156e-06
-3.24492e-08
2.54637e-06
-3.07718e-08
2.57554e-06
-2.91669e-08
2.60317e-06
-2.76303e-08
2.62934e-06
-2.61603e-08
2.65409e-06
-2.47547e-08
2.6775e-06
-2.34094e-08
2.69961e-06
-2.21192e-08
2.7205e-06
-2.08804e-08
2.74019e-06
-1.96921e-08
2.75875e-06
-1.85538e-08
2.77621e-06
-1.74634e-08
2.79263e-06
-1.64173e-08
2.80805e-06
-1.54125e-08
2.8225e-06
-1.44477e-08
2.83603e-06
-1.35219e-08
2.84866e-06
-1.26329e-08
2.86043e-06
-1.17774e-08
2.87138e-06
-1.09515e-08
2.88154e-06
-1.01524e-08
2.89093e-06
-9.37862e-09
2.89956e-06
-8.62768e-09
2.90746e-06
-7.89563e-09
2.91464e-06
-7.17669e-09
2.9211e-06
-6.46168e-09
2.92684e-06
-5.73813e-09
2.93183e-06
-4.99381e-09
2.93605e-06
-4.21161e-09
2.93941e-06
-3.36345e-09
2.94182e-06
-2.41836e-09
2.94315e-06
-1.328e-09
2.94319e-06
-4.41638e-11
2.94163e-06
1.56256e-09
2.93788e-06
3.74023e-09
2.93105e-06
6.83918e-09
2.91952e-06
1.1534e-08
2.9003e-06
1.92099e-08
2.86681e-06
3.34859e-08
2.80296e-06
6.38547e-08
1.50955e-07
2.65199e-06
1.88795e-08
-4.85576e-08
2.72965e-08
-3.78821e-08
2.57419e-08
-2.11422e-08
1.44877e-08
-2.52075e-09
-5.55985e-09
1.62752e-08
-3.28915e-08
3.40047e-08
-6.60938e-08
4.9933e-08
-1.03984e-07
6.41874e-08
-1.45573e-07
7.67922e-08
-1.90146e-07
8.76338e-08
-2.37672e-07
9.66283e-08
-2.88097e-07
1.03957e-07
-3.41129e-07
1.09897e-07
-3.964e-07
1.14696e-07
-4.53562e-07
1.18561e-07
-5.12303e-07
1.21665e-07
-5.72325e-07
1.24156e-07
-6.33297e-07
1.26166e-07
-6.95025e-07
1.27778e-07
-7.57401e-07
1.2903e-07
-8.20285e-07
1.29982e-07
-8.83551e-07
1.30686e-07
-9.47095e-07
1.31189e-07
-1.01084e-06
1.31527e-07
-1.07471e-06
1.31733e-07
-1.13865e-06
1.31833e-07
-1.20264e-06
1.31851e-07
-1.26663e-06
1.31806e-07
-1.33059e-06
1.31713e-07
-1.39452e-06
1.31585e-07
-1.45839e-06
1.31435e-07
-1.5222e-06
1.31269e-07
-1.58593e-06
1.31097e-07
-1.6496e-06
1.30923e-07
-1.71319e-06
1.30751e-07
-1.7767e-06
1.30586e-07
-1.84013e-06
1.30427e-07
-1.90349e-06
1.30277e-07
-1.96678e-06
1.30137e-07
-2.02999e-06
1.30005e-07
-2.09313e-06
1.29881e-07
-2.15619e-06
1.29763e-07
-2.21918e-06
1.2965e-07
-2.28208e-06
1.29539e-07
-2.34489e-06
1.29425e-07
-2.40761e-06
1.29307e-07
-2.47022e-06
1.29178e-07
-2.53271e-06
1.29035e-07
-2.59505e-06
1.28871e-07
-2.65724e-06
1.28679e-07
-2.71924e-06
1.28452e-07
-2.78102e-06
1.28183e-07
-2.84254e-06
1.2786e-07
-2.90377e-06
1.27474e-07
-2.96466e-06
1.27013e-07
-3.02516e-06
1.26462e-07
-3.08519e-06
1.25806e-07
-3.14469e-06
1.25027e-07
-3.20357e-06
1.24105e-07
-3.26175e-06
1.23017e-07
-3.31911e-06
1.21735e-07
-3.37553e-06
1.2023e-07
-3.43089e-06
1.18469e-07
-3.48501e-06
1.16411e-07
-3.53772e-06
1.14013e-07
-3.58882e-06
1.11225e-07
-3.63809e-06
1.07988e-07
-3.68527e-06
1.04239e-07
-3.73006e-06
9.99052e-08
-3.77214e-06
9.49044e-08
-3.81115e-06
8.91458e-08
-3.84667e-06
8.25289e-08
-3.87825e-06
7.49443e-08
-3.90536e-06
6.62737e-08
-3.92745e-06
5.63896e-08
-3.94389e-06
4.51531e-08
-3.95399e-06
3.24179e-08
-3.957e-06
1.80437e-08
-3.95212e-06
1.89613e-09
-3.93856e-06
-1.60355e-08
-3.91552e-06
-3.57039e-08
-3.88217e-06
-5.71149e-08
-3.83772e-06
-8.02158e-08
-3.78143e-06
-1.04873e-07
-3.71269e-06
-1.30865e-07
-3.63099e-06
-1.57882e-07
-3.53604e-06
-1.85525e-07
-3.42775e-06
-2.13321e-07
-3.30628e-06
-2.4074e-07
-3.17208e-06
-2.67222e-07
-3.02585e-06
-2.92211e-07
-2.86855e-06
-3.1519e-07
-2.70137e-06
-3.35705e-07
-2.52567e-06
-3.53398e-07
-2.34295e-06
-3.6802e-07
-2.15477e-06
-3.79437e-07
-1.96269e-06
-3.87632e-07
-1.76825e-06
-3.92691e-07
-1.5729e-06
-3.94787e-07
-1.37794e-06
-3.94165e-07
-1.18457e-06
-3.91115e-07
-9.93775e-07
-3.85957e-07
-8.06401e-07
-3.79024e-07
-6.23088e-07
-3.70647e-07
-4.44233e-07
-3.61243e-07
-2.70044e-07
-3.51042e-07
-1.00386e-07
-3.40623e-07
6.41062e-08
-3.29918e-07
2.22247e-07
-3.18429e-07
3.73615e-07
-3.06013e-07
5.18371e-07
-2.92902e-07
6.56776e-07
-2.79857e-07
7.88965e-07
-2.67046e-07
9.15117e-07
-2.54589e-07
1.03543e-06
-2.42555e-07
1.15012e-06
-2.3098e-07
1.25942e-06
-2.19879e-07
1.36355e-06
-2.09259e-07
1.46273e-06
-1.99117e-07
1.5572e-06
-1.89447e-07
1.64716e-06
-1.80237e-07
1.73283e-06
-1.7147e-07
1.81441e-06
-1.63128e-07
1.8921e-06
-1.55195e-07
1.96609e-06
-1.47654e-07
2.03656e-06
-1.40486e-07
2.10367e-06
-1.3367e-07
2.16759e-06
-1.27186e-07
2.22848e-06
-1.21019e-07
2.28647e-06
-1.15154e-07
2.34171e-06
-1.09574e-07
2.39432e-06
-1.04259e-07
2.44444e-06
-9.91968e-08
2.49218e-06
-9.4374e-08
2.53764e-06
-8.97786e-08
2.58094e-06
-8.53969e-08
2.62217e-06
-8.12155e-08
2.66143e-06
-7.72241e-08
2.6988e-06
-7.34137e-08
2.73437e-06
-6.97752e-08
2.76822e-06
-6.62985e-08
2.80043e-06
-6.29748e-08
2.83107e-06
-5.97966e-08
2.8602e-06
-5.67572e-08
2.88789e-06
-5.38499e-08
2.9142e-06
-5.10671e-08
2.9392e-06
-4.84016e-08
2.96294e-06
-4.58474e-08
2.98547e-06
-4.33997e-08
3.00683e-06
-4.10545e-08
3.02709e-06
-3.88075e-08
3.04629e-06
-3.66543e-08
3.06447e-06
-3.45906e-08
3.08167e-06
-3.26121e-08
3.09794e-06
-3.07143e-08
3.11331e-06
-2.88923e-08
3.12781e-06
-2.71408e-08
3.14149e-06
-2.54552e-08
3.15438e-06
-2.38316e-08
3.1665e-06
-2.22655e-08
3.17788e-06
-2.07529e-08
3.18855e-06
-1.92872e-08
3.1985e-06
-1.78587e-08
3.20778e-06
-1.64543e-08
3.21637e-06
-1.50578e-08
3.22429e-06
-1.3649e-08
3.23149e-06
-1.22024e-08
3.23797e-06
-1.06841e-08
3.24364e-06
-9.04366e-09
3.24843e-06
-7.21157e-09
3.25218e-06
-5.08823e-09
3.25466e-06
-2.52843e-09
3.25554e-06
6.95278e-10
3.25429e-06
4.98918e-09
3.25008e-06
1.10433e-08
3.24152e-06
2.00941e-08
3.22619e-06
3.45352e-08
3.19991e-06
5.97521e-08
3.15572e-06
1.08045e-07
2.11977e-07
3.0947e-06
-2.94963e-09
-4.56487e-08
-1.64467e-08
-2.43975e-08
-3.80904e-08
4.85708e-10
-6.53819e-08
2.47595e-08
-9.63168e-08
4.72e-08
-1.30081e-07
6.77574e-08
-1.66532e-07
8.63734e-08
-2.05392e-07
1.03039e-07
-2.46369e-07
1.17761e-07
-2.89304e-07
1.30562e-07
-3.34195e-07
1.41515e-07
-3.81012e-07
1.50772e-07
-4.29643e-07
1.58526e-07
-4.79925e-07
1.64978e-07
-5.31676e-07
1.70315e-07
-5.84713e-07
1.74705e-07
-6.38852e-07
1.78299e-07
-6.93907e-07
1.81225e-07
-7.49712e-07
1.83588e-07
-8.06148e-07
1.85472e-07
-8.63113e-07
1.86951e-07
-9.20515e-07
1.88091e-07
-9.78274e-07
1.88951e-07
-1.03632e-06
1.89578e-07
-1.09461e-06
1.90016e-07
-1.15307e-06
1.903e-07
-1.21169e-06
1.90461e-07
-1.27041e-06
1.90525e-07
-1.32921e-06
1.90513e-07
-1.38808e-06
1.90444e-07
-1.44698e-06
1.90333e-07
-1.50591e-06
1.90191e-07
-1.56485e-06
1.9003e-07
-1.62378e-06
1.89856e-07
-1.68271e-06
1.89676e-07
-1.74162e-06
1.89493e-07
-1.80051e-06
1.89312e-07
-1.85936e-06
1.89132e-07
-1.91818e-06
1.88955e-07
-1.97695e-06
1.8878e-07
-2.03567e-06
1.88606e-07
-2.09433e-06
1.88429e-07
-2.15292e-06
1.88247e-07
-2.21144e-06
1.88055e-07
-2.26985e-06
1.87848e-07
-2.32816e-06
1.87619e-07
-2.38634e-06
1.87362e-07
-2.44438e-06
1.87069e-07
-2.50224e-06
1.86729e-07
-2.55989e-06
1.86334e-07
-2.61731e-06
1.85871e-07
-2.67446e-06
1.85326e-07
-2.73129e-06
1.84686e-07
-2.78775e-06
1.83933e-07
-2.84379e-06
1.83048e-07
-2.89934e-06
1.82011e-07
-2.95433e-06
1.80797e-07
-3.00869e-06
1.7938e-07
-3.06231e-06
1.77728e-07
-3.1151e-06
1.75808e-07
-3.16695e-06
1.7358e-07
-3.21772e-06
1.71001e-07
-3.26727e-06
1.68021e-07
-3.31544e-06
1.64584e-07
-3.36205e-06
1.60626e-07
-3.4069e-06
1.56076e-07
-3.44977e-06
1.50852e-07
-3.49039e-06
1.44865e-07
-3.5285e-06
1.38013e-07
-3.56377e-06
1.30181e-07
-3.59587e-06
1.21243e-07
-3.6244e-06
1.11063e-07
-3.64895e-06
9.9487e-08
-3.66903e-06
8.63544e-08
-3.68413e-06
7.149e-08
-3.69369e-06
5.47054e-08
-3.69708e-06
3.58049e-08
-3.69363e-06
1.45952e-08
-3.68268e-06
-9.06153e-09
-3.66351e-06
-3.52005e-08
-3.63538e-06
-6.38378e-08
-3.59752e-06
-9.49754e-08
-3.54919e-06
-1.28537e-07
-3.48972e-06
-1.64341e-07
-3.4185e-06
-2.02082e-07
-3.33505e-06
-2.41327e-07
-3.23906e-06
-2.81512e-07
-3.13042e-06
-3.21958e-07
-3.00926e-06
-3.61897e-07
-2.87597e-06
-4.00509e-07
-2.73121e-06
-4.3697e-07
-2.5759e-06
-4.70502e-07
-2.41118e-06
-5.00425e-07
-2.23838e-06
-5.26195e-07
-2.05897e-06
-5.47432e-07
-1.87447e-06
-5.63936e-07
-1.68643e-06
-5.75679e-07
-1.49632e-06
-5.82798e-07
-1.30554e-06
-5.85562e-07
-1.11536e-06
-5.84349e-07
-9.26864e-07
-5.79607e-07
-7.40985e-07
-5.71835e-07
-5.5847e-07
-5.61535e-07
-3.79871e-07
-5.49241e-07
-2.05557e-07
-5.35555e-07
-3.57677e-08
-5.2083e-07
1.28478e-07
-5.04865e-07
2.86168e-07
-4.87603e-07
4.37272e-07
-4.69531e-07
5.82013e-07
-4.50756e-07
7.20732e-07
-4.31618e-07
8.53518e-07
-4.12639e-07
9.80506e-07
-3.94036e-07
1.10185e-06
-3.75939e-07
1.21773e-06
-3.58434e-07
1.32832e-06
-3.41576e-07
1.43384e-06
-3.25392e-07
1.53446e-06
-3.0989e-07
1.63041e-06
-2.95065e-07
1.72187e-06
-2.80913e-07
1.80906e-06
-2.67421e-07
1.89215e-06
-2.54565e-07
1.97135e-06
-2.42322e-07
2.04682e-06
-2.30668e-07
2.11874e-06
-2.19579e-07
2.18729e-06
-2.09029e-07
2.25262e-06
-1.9899e-07
2.31487e-06
-1.89438e-07
2.3742e-06
-1.80349e-07
2.43074e-06
-1.71696e-07
2.48463e-06
-1.63455e-07
2.53598e-06
-1.55605e-07
2.58491e-06
-1.48126e-07
2.63154e-06
-1.40999e-07
2.67596e-06
-1.34203e-07
2.71829e-06
-1.27719e-07
2.75861e-06
-1.21531e-07
2.79701e-06
-1.15625e-07
2.83358e-06
-1.09985e-07
2.8684e-06
-1.04597e-07
2.90155e-06
-9.94471e-08
2.9331e-06
-9.45231e-08
2.96312e-06
-8.98145e-08
2.99167e-06
-8.53113e-08
3.01883e-06
-8.10027e-08
3.04464e-06
-7.68783e-08
3.06917e-06
-7.29288e-08
3.09247e-06
-6.91462e-08
3.11459e-06
-6.55232e-08
3.13559e-06
-6.20528e-08
3.15551e-06
-5.87276e-08
3.17439e-06
-5.5541e-08
3.19229e-06
-5.24865e-08
3.20923e-06
-4.95582e-08
3.22527e-06
-4.67496e-08
3.24044e-06
-4.40545e-08
3.25477e-06
-4.14665e-08
3.2683e-06
-3.89794e-08
3.28106e-06
-3.65872e-08
3.29308e-06
-3.42823e-08
3.30438e-06
-3.20564e-08
3.31499e-06
-2.98988e-08
3.32492e-06
-2.77956e-08
3.3342e-06
-2.5729e-08
3.34282e-06
-2.36773e-08
3.35079e-06
-2.16121e-08
3.35808e-06
-1.9496e-08
3.36467e-06
-1.72778e-08
3.37051e-06
-1.48853e-08
3.37551e-06
-1.22158e-08
3.37955e-06
-9.12415e-09
3.38241e-06
-5.39322e-09
3.38381e-06
-6.98561e-10
3.3833e-06
5.5033e-09
3.38021e-06
1.41291e-08
3.37354e-06
2.67596e-08
3.36181e-06
4.62602e-08
3.34321e-06
7.83507e-08
3.31688e-06
1.3437e-07
2.36948e-07
3.29191e-06
-2.28643e-08
-2.27598e-08
-5.29964e-08
5.7683e-09
-8.58392e-08
3.3342e-08
-1.19733e-07
5.86616e-08
-1.54645e-07
8.21197e-08
-1.90653e-07
1.03772e-07
-2.2781e-07
1.23537e-07
-2.66117e-07
1.4135e-07
-3.05561e-07
1.57208e-07
-3.46154e-07
1.71157e-07
-3.87933e-07
1.83296e-07
-4.30917e-07
1.93757e-07
-4.75091e-07
2.027e-07
-5.20405e-07
2.10292e-07
-5.66787e-07
2.16697e-07
-6.14151e-07
2.22068e-07
-6.62399e-07
2.26547e-07
-7.11435e-07
2.3026e-07
-7.61164e-07
2.33317e-07
-8.11504e-07
2.35812e-07
-8.62382e-07
2.37829e-07
-9.13732e-07
2.39441e-07
-9.65492e-07
2.40711e-07
-1.01761e-06
2.41695e-07
-1.07003e-06
2.42439e-07
-1.12272e-06
2.42987e-07
-1.17563e-06
2.43372e-07
-1.22873e-06
2.43625e-07
-1.28199e-06
2.43773e-07
-1.33538e-06
2.43836e-07
-1.38888e-06
2.43834e-07
-1.44247e-06
2.43781e-07
-1.49613e-06
2.4369e-07
-1.54985e-06
2.43571e-07
-1.6036e-06
2.43431e-07
-1.65739e-06
2.43276e-07
-1.71118e-06
2.43109e-07
-1.76499e-06
2.42935e-07
-1.81878e-06
2.42752e-07
-1.87256e-06
2.4256e-07
-1.92632e-06
2.42358e-07
-1.98003e-06
2.42142e-07
-2.03369e-06
2.41907e-07
-2.08728e-06
2.41648e-07
-2.14079e-06
2.41358e-07
-2.1942e-06
2.41029e-07
-2.24749e-06
2.4065e-07
-2.30063e-06
2.40211e-07
-2.3536e-06
2.397e-07
-2.40637e-06
2.39101e-07
-2.4589e-06
2.38399e-07
-2.51115e-06
2.37576e-07
-2.56307e-06
2.36611e-07
-2.61462e-06
2.35483e-07
-2.66573e-06
2.34164e-07
-2.71635e-06
2.32628e-07
-2.76639e-06
2.30842e-07
-2.81578e-06
2.28769e-07
-2.86443e-06
2.26371e-07
-2.91222e-06
2.23601e-07
-2.95905e-06
2.20409e-07
-3.00479e-06
2.16738e-07
-3.04929e-06
2.12523e-07
-3.0924e-06
2.07692e-07
-3.13394e-06
2.02164e-07
-3.17371e-06
1.95847e-07
-3.2115e-06
1.8864e-07
-3.24706e-06
1.80427e-07
-3.28013e-06
1.7108e-07
-3.31041e-06
1.60457e-07
-3.33756e-06
1.48401e-07
-3.36124e-06
1.34737e-07
-3.38103e-06
1.19279e-07
-3.3965e-06
1.01825e-07
-3.40717e-06
8.21586e-08
-3.41251e-06
6.00488e-08
-3.41196e-06
3.52583e-08
-3.4049e-06
7.53856e-09
-3.39071e-06
-2.32546e-08
-3.36873e-06
-5.71843e-08
-3.33823e-06
-9.43377e-08
-3.29848e-06
-1.34725e-07
-3.24876e-06
-1.78257e-07
-3.18839e-06
-2.24713e-07
-3.11675e-06
-2.73721e-07
-3.03334e-06
-3.24737e-07
-2.93781e-06
-3.77044e-07
-2.83e-06
-4.29764e-07
-2.71001e-06
-4.81888e-07
-2.57819e-06
-5.3233e-07
-2.43518e-06
-5.79981e-07
-2.28189e-06
-6.2379e-07
-2.11948e-06
-6.62831e-07
-1.94931e-06
-6.96364e-07
-1.77287e-06
-7.23873e-07
-1.59171e-06
-7.45093e-07
-1.40739e-06
-7.60002e-07
-1.22139e-06
-7.688e-07
-1.03508e-06
-7.71872e-07
-8.49682e-07
-7.69749e-07
-6.66244e-07
-7.63045e-07
-4.85621e-07
-7.52461e-07
-3.08508e-07
-7.38651e-07
-1.35434e-07
-7.22315e-07
3.29353e-08
-7.03919e-07
1.9555e-07
-6.83445e-07
3.51906e-07
-6.61226e-07
5.02047e-07
-6.37743e-07
6.46048e-07
-6.13524e-07
7.84132e-07
-5.88841e-07
9.16531e-07
-5.64026e-07
1.04335e-06
-5.3946e-07
1.16472e-06
-5.15391e-07