/*--------------------------------*- C++ -*----------------------------------*\
| =========                 |                                                 |
| \\      /  F ield         | OpenFOAM: The Open Source CFD Toolbox           |
|  \\    /   O peration     | Version:  1.4.2                                 |
|   \\  /    A nd           | Web:      http://www.openfoam.org               |
|    \\/     M anipulation  |                                                 |
\*---------------------------------------------------------------------------*/
FoamFile
{
    version     2.0;
    format      ascii;
    class       volVectorField;
    object      U;
    location    "400";
}
// * * * * * * * * * * * * * * * * * * * * * * * * * * * * * * * * * * * * * //

dimensions      [0 1 -1 0 0 0 0];

internalField   nonuniform List<vector> 
12225
(
(9.77629 0.0380858 0)
(9.58155 0.0388129 0)
(9.36718 0.0370356 0)
(9.16134 0.0361765 0)
(8.9703 0.0352379 0)
(8.79184 0.0340745 0)
(8.62481 0.0328143 0)
(8.4689 0.0315222 0)
(8.32375 0.030212 0)
(8.1889 0.0288885 0)
(8.06386 0.0275568 0)
(7.94821 0.0262178 0)
(7.84154 0.0248655 0)
(7.74354 0.0234835 0)
(7.65406 0.0220279 0)
(7.57324 0.0203845 0)
(7.50268 0.0183086 0)
(7.43578 0.00546854 0)
(10.004 0.0585903 0)
(10.0076 0.055558 0)
(9.98288 0.051909 0)
(9.95071 0.0514977 0)
(9.91768 0.0512402 0)
(9.88327 0.0506061 0)
(9.84749 0.0497995 0)
(9.8109 0.0489134 0)
(9.77397 0.0479478 0)
(9.73704 0.0468942 0)
(9.70039 0.0457493 0)
(9.6643 0.0445022 0)
(9.62908 0.0431242 0)
(9.59508 0.0415551 0)
(9.56277 0.0396603 0)
(9.53286 0.0371178 0)
(9.50685 0.0331276 0)
(9.48259 0.0240228 0)
(10.0174 0.0524535 0)
(10.0369 0.0527258 0)
(10.0381 0.0513283 0)
(10.0334 0.0523089 0)
(10.0279 0.05297 0)
(10.0214 0.0529998 0)
(10.0137 0.0527296 0)
(10.0053 0.0523056 0)
(9.99641 0.0517476 0)
(9.98714 0.0510549 0)
(9.97765 0.0502243 0)
(9.96806 0.0492367 0)
(9.95853 0.0480426 0)
(9.94922 0.046542 0)
(9.94039 0.044532 0)
(9.9323 0.0415824 0)
(9.9252 0.0367145 0)
(9.91566 0.0274483 0)
(10.0158 0.044991 0)
(10.0375 0.050209 0)
(10.0457 0.0507832 0)
(10.0485 0.0523433 0)
(10.0504 0.0533712 0)
(10.0513 0.0537274 0)
(10.0514 0.0537282 0)
(10.0508 0.0535232 0)
(10.0499 0.0531453 0)
(10.0487 0.0526009 0)
(10.0474 0.0518867 0)
(10.046 0.0509777 0)
(10.0446 0.0498136 0)
(10.0434 0.0482793 0)
(10.0424 0.0461653 0)
(10.0416 0.0430918 0)
(10.0409 0.0384373 0)
(10.0377 0.0313324 0)
(10.0125 0.0371344 0)
(10.033 0.0462599 0)
(10.0444 0.0487471 0)
(10.0505 0.0509279 0)
(10.0555 0.0523041 0)
(10.0594 0.0529196 0)
(10.0626 0.0531035 0)
(10.0652 0.0530234 0)
(10.0674 0.0527294 0)
(10.0693 0.0522363 0)
(10.0711 0.0515421 0)
(10.0728 0.0506207 0)
(10.0744 0.0494109 0)
(10.0761 0.0478026 0)
(10.0778 0.045615 0)
(10.0794 0.0425718 0)
(10.0805 0.0383459 0)
(10.0799 0.0327477 0)
(10.0093 0.0303027 0)
(10.0272 0.0415273 0)
(10.0397 0.045654 0)
(10.0479 0.0485259 0)
(10.0546 0.0503141 0)
(10.0603 0.0512269 0)
(10.0652 0.0516125 0)
(10.0694 0.0516594 0)
(10.0732 0.0514429 0)
(10.0767 0.0509931 0)
(10.08 0.0503143 0)
(10.0832 0.0493847 0)
(10.0862 0.0481494 0)
(10.0892 0.0465156 0)
(10.092 0.0443469 0)
(10.0945 0.0414706 0)
(10.0964 0.0377591 0)
(10.0968 0.0333185 0)
(10.0067 0.0245636 0)
(10.0215 0.0365631 0)
(10.0339 0.0418616 0)
(10.0431 0.0453204 0)
(10.0508 0.0475213 0)
(10.0577 0.0487557 0)
(10.0636 0.0493697 0)
(10.0689 0.0495682 0)
(10.0738 0.0494483 0)
(10.0782 0.0490557 0)
(10.0825 0.0484049 0)
(10.0865 0.0474829 0)
(10.0903 0.0462495 0)
(10.0939 0.044637 0)
(10.0972 0.0425575 0)
(10.1001 0.0399232 0)
(10.1024 0.0367243 0)
(10.1036 0.0331633 0)
(10.005 0.0204594 0)
(10.0173 0.0324188 0)
(10.0289 0.0383354 0)
(10.0382 0.0421663 0)
(10.0464 0.0446485 0)
(10.0537 0.0461184 0)
(10.0603 0.0469161 0)
(10.0662 0.0472497 0)
(10.0716 0.0472257 0)
(10.0767 0.0468989 0)
(10.0814 0.0462923 0)
(10.0859 0.0454029 0)
(10.0901 0.0442052 0)
(10.0941 0.0426558 0)
(10.0977 0.0407046 0)
(10.1008 0.0383182 0)
(10.1034 0.03554 0)
(10.105 0.0325784 0)
(10.0038 0.01732 0)
(10.014 0.0288642 0)
(10.0247 0.0350902 0)
(10.0338 0.0391642 0)
(10.0421 0.0418448 0)
(10.0496 0.043492 0)
(10.0565 0.0444348 0)
(10.0628 0.0448793 0)
(10.0686 0.0449382 0)
(10.074 0.0446739 0)
(10.0791 0.0441163 0)
(10.0839 0.0432714 0)
(10.0884 0.0421268 0)
(10.0926 0.0406591 0)
(10.0964 0.0388471 0)
(10.0997 0.0366928 0)
(10.1024 0.0342654 0)
(10.1044 0.0317569 0)
(10.0029 0.0144812 0)
(10.0112 0.0252535 0)
(10.0207 0.0315555 0)
(10.0293 0.0357534 0)
(10.0374 0.0385702 0)
(10.0449 0.0403601 0)
(10.0519 0.0414298 0)
(10.0584 0.0419785 0)
(10.0644 0.0421213 0)
(10.0701 0.0419258 0)
(10.0754 0.0414289 0)
(10.0805 0.0406458 0)
(10.0851 0.039578 0)
(10.0895 0.0382214 0)
(10.0934 0.0365791 0)
(10.0969 0.0346785 0)
(10.0998 0.0325993 0)
(10.1021 0.0305094 0)
(10.0021 0.0119411 0)
(10.0087 0.0216713 0)
(10.0169 0.0278149 0)
(10.025 0.0319925 0)
(10.0326 0.0348553 0)
(10.0399 0.0367305 0)
(10.0468 0.0378908 0)
(10.0533 0.0385225 0)
(10.0594 0.0387398 0)
(10.0652 0.0386129 0)
(10.0707 0.0381847 0)
(10.0758 0.0374793 0)
(10.0806 0.036511 0)
(10.085 0.0352924 0)
(10.089 0.0338445 0)
(10.0926 0.0322097 0)
(10.0957 0.0304664 0)
(10.0983 0.0287546 0)
(10.0015 0.0096954 0)
(10.0067 0.0181934 0)
(10.0137 0.0239482 0)
(10.0209 0.0279548 0)
(10.028 0.0307563 0)
(10.0349 0.0326404 0)
(10.0415 0.0338387 0)
(10.0479 0.034519 0)
(10.0539 0.0347902 0)
(10.0597 0.034723 0)
(10.0651 0.0343644 0)
(10.0702 0.0337463 0)
(10.075 0.0328935 0)
(10.0794 0.0318307 0)
(10.0835 0.0305904 0)
(10.0872 0.0292206 0)
(10.0904 0.0277913 0)
(10.0932 0.0264131 0)
(10.0011 0.00772066 0)
(10.0052 0.0148739 0)
(10.011 0.0200273 0)
(10.0173 0.023711 0)
(10.0238 0.0263351 0)
(10.0302 0.0281392 0)
(10.0365 0.0293114 0)
(10.0425 0.0299954 0)
(10.0483 0.0302909 0)
(10.0539 0.0302665 0)
(10.0592 0.0299712 0)
(10.0642 0.0294421 0)
(10.0689 0.028711 0)
(10.0733 0.02781 0)
(10.0773 0.0267763 0)
(10.081 0.0256566 0)
(10.0843 0.0245089 0)
(10.0873 0.023417 0)
(10.0008 0.00597259 0)
(10.004 0.0117335 0)
(10.0088 0.0161052 0)
(10.0144 0.0193173 0)
(10.0202 0.0216452 0)
(10.026 0.0232736 0)
(10.0318 0.0243477 0)
(10.0375 0.0249838 0)
(10.043 0.0252681 0)
(10.0484 0.0252637 0)
(10.0534 0.0250188 0)
(10.0582 0.0245722 0)
(10.0628 0.0239588 0)
(10.067 0.0232128 0)
(10.071 0.0223709 0)
(10.0746 0.021474 0)
(10.0779 0.0205674 0)
(10.081 0.0197121 0)
(10.0007 0.00439556 0)
(10.0032 0.00875644 0)
(10.0072 0.012204 0)
(10.012 0.0148043 0)
(10.0171 0.0167176 0)
(10.0225 0.018072 0)
(10.0278 0.0189716 0)
(10.0331 0.0195034 0)
(10.0383 0.0197364 0)
(10.0433 0.0197247 0)
(10.0481 0.0195114 0)
(10.0527 0.0191334 0)
(10.0571 0.0186241 0)
(10.0612 0.0180155 0)
(10.065 0.0173398 0)
(10.0686 0.0166299 0)
(10.0719 0.0159194 0)
(10.075 0.0152515 0)
(10.0005 0.00292785 0)
(10.0026 0.00588927 0)
(10.006 0.00830181 0)
(10.0102 0.0101615 0)
(10.0148 0.011545 0)
(10.0197 0.0125272 0)
(10.0246 0.0131733 0)
(10.0296 0.0135408 0)
(10.0344 0.0136785 0)
(10.0391 0.013627 0)
(10.0437 0.0134209 0)
(10.0481 0.0130905 0)
(10.0522 0.0126637 0)
(10.0561 0.0121667 0)
(10.0599 0.011625 0)
(10.0633 0.0110628 0)
(10.0666 0.0105039 0)
(10.0698 0.00997803 0)
(10.0005 0.00150061 0)
(10.0023 0.00303975 0)
(10.0053 0.00432121 0)
(10.009 0.00532372 0)
(10.0133 0.00606824 0)
(10.0178 0.00658333 0)
(10.0224 0.00689757 0)
(10.027 0.00703886 0)
(10.0316 0.00703332 0)
(10.0361 0.00690473 0)
(10.0404 0.00667487 0)
(10.0446 0.00636398 0)
(10.0486 0.00599114 0)
(10.0524 0.00557444 0)
(10.056 0.00513103 0)
(10.0594 0.00467709 0)
(10.0626 0.00422796 0)
(10.0658 0.00380413 0)
(10.0004 0.000110406 0)
(10.0021 0.000237321 0)
(10.005 0.000362654 0)
(10.0086 0.000466577 0)
(10.0127 0.000528053 0)
(10.017 0.000533951 0)
(10.0214 0.000478323 0)
(10.0259 0.000360174 0)
(10.0303 0.000182068 0)
(10.0346 -5.07175e-05 0)
(10.0388 -0.000331025 0)
(10.0429 -0.000650494 0)
(10.0468 -0.00100007 0)
(10.0505 -0.00137041 0)
(10.054 -0.00175221 0)
(10.0574 -0.00213651 0)
(10.0606 -0.00251435 0)
(10.0637 -0.00287199 0)
(10.0005 -0.0012183 0)
(10.0023 -0.0024294 0)
(10.0052 -0.00338243 0)
(10.0089 -0.00410524 0)
(10.0131 -0.00466663 0)
(10.0174 -0.00512233 0)
(10.0218 -0.005512 0)
(10.0263 -0.00586455 0)
(10.0307 -0.00619998 0)
(10.0349 -0.00653062 0)
(10.0391 -0.00686302 0)
(10.0431 -0.00719977 0)
(10.0469 -0.00754074 0)
(10.0506 -0.00788403 0)
(10.0541 -0.00822666 0)
(10.0575 -0.0085651 0)
(10.0607 -0.00889496 0)
(10.0638 -0.00920756 0)
(10.0005 -0.00254325 0)
(10.0026 -0.00503102 0)
(10.006 -0.00694837 0)
(10.01 -0.00837322 0)
(10.0143 -0.0094463 0)
(10.0188 -0.0102708 0)
(10.0234 -0.0109201 0)
(10.0279 -0.0114502 0)
(10.0324 -0.0119018 0)
(10.0367 -0.0123022 0)
(10.0408 -0.0126695 0)
(10.0448 -0.013015 0)
(10.0487 -0.0133454 0)
(10.0524 -0.0136647 0)
(10.0559 -0.0139744 0)
(10.0592 -0.0142754 0)
(10.0624 -0.0145664 0)
(10.0655 -0.0148428 0)
(10.0007 -0.00397869 0)
(10.0033 -0.00774157 0)
(10.0072 -0.0105132 0)
(10.0117 -0.0125089 0)
(10.0164 -0.0139772 0)
(10.0212 -0.015072 0)
(10.026 -0.0159002 0)
(10.0306 -0.0165446 0)
(10.0352 -0.017064 0)
(10.0395 -0.0174983 0)
(10.0437 -0.0178742 0)
(10.0478 -0.0182095 0)
(10.0516 -0.0185164 0)
(10.0552 -0.0188026 0)
(10.0587 -0.0190736 0)
(10.062 -0.0193333 0)
(10.0651 -0.0195834 0)
(10.0682 -0.0198227 0)
(10.001 -0.00564865 0)
(10.0043 -0.0107054 0)
(10.0091 -0.0141892 0)
(10.0143 -0.0166047 0)
(10.0194 -0.018342 0)
(10.0245 -0.0196006 0)
(10.0295 -0.0205207 0)
(10.0343 -0.0212104 0)
(10.0389 -0.0217442 0)
(10.0433 -0.022171 0)
(10.0475 -0.0225236 0)
(10.0514 -0.0228242 0)
(10.0552 -0.0230882 0)
(10.0588 -0.0233261 0)
(10.0622 -0.0235459 0)
(10.0654 -0.0237538 0)
(10.0684 -0.0239545 0)
(10.0713 -0.02415 0)
(10.0014 -0.00770463 0)
(10.006 -0.0140407 0)
(10.0118 -0.0180247 0)
(10.0177 -0.0206788 0)
(10.0232 -0.022545 0)
(10.0286 -0.0238516 0)
(10.0337 -0.0247704 0)
(10.0385 -0.0254335 0)
(10.0431 -0.0259263 0)
(10.0474 -0.0263031 0)
(10.0515 -0.0265999 0)
(10.0553 -0.0268411 0)
(10.0589 -0.027043 0)
(10.0623 -0.0272172 0)
(10.0655 -0.0273728 0)
(10.0685 -0.0275176 0)
(10.0713 -0.0276587 0)
(10.074 -0.0278025 0)
(10.0021 -0.010334 0)
(10.0084 -0.0178226 0)
(10.0155 -0.0219916 0)
(10.0219 -0.0246685 0)
(10.0277 -0.0265081 0)
(10.0331 -0.02774 0)
(10.0382 -0.0285655 0)
(10.0429 -0.029135 0)
(10.0472 -0.0295388 0)
(10.0512 -0.0298311 0)
(10.055 -0.0300473 0)
(10.0585 -0.0302108 0)
(10.0618 -0.0303371 0)
(10.0648 -0.0304368 0)
(10.0677 -0.0305184 0)
(10.0704 -0.0305901 0)
(10.0729 -0.0306614 0)
(10.0753 -0.0307446 0)
(10.0033 -0.0137585 0)
(10.0117 -0.0220424 0)
(10.02 -0.0259625 0)
(10.0266 -0.0284237 0)
(10.0323 -0.0300817 0)
(10.0375 -0.0311273 0)
(10.0421 -0.0317823 0)
(10.0463 -0.0322062 0)
(10.0501 -0.032486 0)
(10.0536 -0.0326711 0)
(10.0568 -0.0327932 0)
(10.0598 -0.0328723 0)
(10.0626 -0.0329207 0)
(10.0652 -0.0329459 0)
(10.0676 -0.0329537 0)
(10.0698 -0.0329504 0)
(10.0719 -0.0329465 0)
(10.0738 -0.0329619 0)
(10.0051 -0.0182345 0)
(10.016 -0.0265299 0)
(10.0249 -0.0296671 0)
(10.031 -0.0316902 0)
(10.036 -0.0330321 0)
(10.0404 -0.0338053 0)
(10.0441 -0.034243 0)
(10.0474 -0.0345007 0)
(10.0504 -0.0346505 0)
(10.053 -0.0347302 0)
(10.0554 -0.0347635 0)
(10.0576 -0.0347648 0)
(10.0596 -0.0347423 0)
(10.0614 -0.0346994 0)
(10.0631 -0.0346373 0)
(10.0646 -0.0345571 0)
(10.066 -0.0344663 0)
(10.0672 -0.0343889 0)
(10.0075 -0.0240814 0)
(10.0207 -0.03093 0)
(10.0289 -0.0326692 0)
(10.0334 -0.0341156 0)
(10.0368 -0.0351036 0)
(10.0396 -0.0355963 0)
(10.0418 -0.0358236 0)
(10.0436 -0.0359285 0)
(10.045 -0.0359637 0)
(10.0461 -0.0359522 0)
(10.0471 -0.035909 0)
(10.0479 -0.0358433 0)
(10.0485 -0.0357592 0)
(10.049 -0.0356565 0)
(10.0494 -0.0355311 0)
(10.0496 -0.0353747 0)
(10.0498 -0.0351833 0)
(10.0497 -0.0349673 0)
(10.0101 -0.0307166 0)
(10.0239 -0.034344 0)
(10.0288 -0.0342619 0)
(10.0295 -0.0350972 0)
(10.0294 -0.0357575 0)
(10.0287 -0.0360013 0)
(10.0275 -0.0360392 0)
(10.0258 -0.035998 0)
(10.0239 -0.0359136 0)
(10.0217 -0.0357993 0)
(10.0195 -0.0356653 0)
(10.0171 -0.035518 0)
(10.0147 -0.0353594 0)
(10.0122 -0.0351866 0)
(10.0096 -0.0349904 0)
(10.0071 -0.0347492 0)
(10.0045 -0.0344292 0)
(10.0016 -0.0339673 0)
(10.0062 -0.0363913 0)
(10.0143 -0.0379102 0)
(10.0068 -0.0360541 0)
(9.99453 -0.035895 0)
(9.98208 -0.0358946 0)
(9.96947 -0.0356633 0)
(9.95649 -0.0353413 0)
(9.94334 -0.0350148 0)
(9.93021 -0.0346964 0)
(9.91718 -0.0343832 0)
(9.9043 -0.0340749 0)
(9.89159 -0.0337709 0)
(9.8791 -0.0334693 0)
(9.86684 -0.0331654 0)
(9.85484 -0.0328477 0)
(9.84313 -0.0324867 0)
(9.83173 -0.0320137 0)
(9.82013 -0.0310417 0)
(9.89294 -0.0248254 0)
(9.80344 -0.0270646 0)
(9.69922 -0.0264708 0)
(9.59637 -0.0263151 0)
(9.50003 -0.0261156 0)
(9.40926 -0.0257623 0)
(9.32319 -0.0253477 0)
(9.24159 -0.0249255 0)
(9.16429 -0.0245082 0)
(9.09108 -0.0240974 0)
(9.02171 -0.0236936 0)
(8.95598 -0.0232969 0)
(8.89368 -0.0229067 0)
(8.83465 -0.022521 0)
(8.77872 -0.022135 0)
(8.72576 -0.0217328 0)
(8.67586 -0.0212671 0)
(8.62751 -0.0203787 0)
(0.0180433 -0.0388862 0)
(0.0400063 -0.0428027 0)
(0.0632249 -0.0366298 0)
(0.0802488 -0.0272692 0)
(0.0887646 -0.0170248 0)
(0.0875753 -0.00584369 0)
(0.0771053 0.00651451 -1.31828e-19)
(0.0582623 0.0199316 1.3558e-19)
(0.0319492 0.0337785 0)
(-0.00354159 0.0467292 1.42161e-19)
(-0.0451075 0.0555871 0)
(-0.0907668 0.0609073 0)
(-0.139965 0.0641813 0)
(-0.191793 0.0661958 -8.19427e-20)
(-0.245635 0.0673669 0)
(-0.301067 0.0679947 0)
(-0.357826 0.0684029 5.98019e-20)
(-0.415589 0.0690145 0)
(-0.474189 0.069404 0)
(-0.53359 0.0693259 0)
(-0.593492 0.0690601 -4.43049e-20)
(-0.653793 0.0686956 0)
(-0.714401 0.068262 -3.95735e-20)
(-0.775238 0.067776 0)
(-0.836237 0.0672516 0)
(-0.897348 0.0667012 -3.44217e-20)
(-0.958528 0.066135 0)
(-1.01975 0.0655615 3.18693e-20)
(-1.08098 0.0649873 0)
(-1.14222 0.0644178 -2.98124e-20)
(-1.20344 0.0638571 0)
(-1.26465 0.0633086 0)
(-1.32585 0.0627748 0)
(-1.38702 0.0622571 0)
(-1.44819 0.0617565 0)
(-1.50935 0.0612734 2.55821e-20)
(-1.57051 0.0608078 0)
(-1.63168 0.0603592 -4.92073e-20)
(-1.69287 0.0599272 0)
(-1.75408 0.0595111 4.75433e-20)
(-1.81533 0.0591102 0)
(-1.87662 0.0587237 0)
(-1.93797 0.0583506 -4.54783e-20)
(-1.99937 0.0579897 0)
(-2.06084 0.0576395 -4.4328e-20)
(-2.12237 0.0572984 4.3808e-20)
(-2.18398 0.0569645 0)
(-2.24567 0.0566359 4.2861e-20)
(-2.30742 0.0563104 4.24278e-20)
(-2.36925 0.0559857 0)
(-2.43115 0.0556591 0)
(-2.4931 0.0553277 0)
(-2.55509 0.0549882 0)
(-2.61712 0.0546368 0)
(-2.67915 0.0542692 -4.02256e-20)
(-2.74117 0.0538803 0)
(-2.80313 0.0534644 3.95868e-20)
(-2.865 0.0530147 0)
(-2.92673 0.0525238 0)
(-2.98827 0.0519831 -3.86572e-20)
(-3.04953 0.051383 0)
(-3.11044 0.0507122 3.80299e-20)
(-3.1709 0.049958 0)
(-3.23079 0.0491057 0)
(-3.28998 0.0481386 0)
(-3.3483 0.0470374 -3.66635e-20)
(-3.40556 0.0457801 0)
(-3.46156 0.0443418 0)
(-3.51603 0.0426942 -3.544e-20)
(-3.56868 0.0408054 0)
(-3.61918 0.0386401 -3.44688e-20)
(-3.66715 0.0361595 0)
(-3.71213 0.033321 0)
(-3.75361 0.030079 0)
(-3.79101 0.0263828 3.19521e-20)
(-3.82369 0.0221749 0)
(-3.85097 0.0173889 0)
(-3.87206 0.0119632 2.93246e-20)
(-3.88606 0.00587419 2.82559e-20)
(-3.89186 -0.000838428 0)
(-3.88859 -0.00814147 2.56718e-20)
(-3.8754 -0.0160485 0)
(-3.85137 -0.024559 4.49454e-20)
(-3.81565 -0.033624 0)
(-3.76746 -0.0431626 3.71499e-20)
(-3.70615 -0.0530633 0)
(-3.63128 -0.0631853 -2.77606e-20)
(-3.54263 -0.0733639 0)
(-3.44023 -0.0834169 0)
(-3.32439 -0.0931538 0)
(-3.19572 -0.102387 3.59054e-21)
(-3.05507 -0.110942 0)
(-2.90356 -0.118667 1.139e-20)
(-2.74247 -0.125442 0)
(-2.57326 -0.131181 -2.83851e-20)
(-2.39745 -0.135836 -3.76563e-20)
(-2.2166 -0.139393 -4.7456e-20)
(-2.03224 -0.141875 0)
(-1.84586 -0.143327 0)
(-1.65883 -0.143817 0)
(-1.47238 -0.143422 0)
(-1.28763 -0.14222 0)
(-1.10553 -0.140281 0)
(-0.926894 -0.137657 0)
(-0.752418 -0.134448 0)
(-0.582595 -0.130772 1.62409e-19)
(-0.417907 -0.12694 1.78933e-19)
(-0.258739 -0.12372 0)
(-0.106362 -0.120844 0)
(0.04758 -0.116499 0)
(0.190699 -0.110678 2.29733e-19)
(0.32865 -0.10467 0)
(0.460728 -0.0987511 0)
(0.586949 -0.0930007 0)
(0.70747 -0.0874729 0)
(0.822492 -0.0822021 -2.16307e-19)
(0.932231 -0.0772065 0)
(1.03691 -0.0724913 0)
(1.13674 -0.0680542 2.08356e-19)
(1.23197 -0.0638886 -2.05879e-19)
(1.32279 -0.0599845 0)
(1.40944 -0.05633 -2.01241e-19)
(1.4921 -0.0529121 0)
(1.57098 -0.0497171 1.97042e-19)
(1.64626 -0.0467305 0)
(1.71813 -0.0439387 0)
(1.78674 -0.0413283 0)
(1.85227 -0.0388869 0)
(1.91486 -0.036603 0)
(1.97466 -0.0344657 -3.73869e-19)
(2.0318 -0.0324648 -3.7115e-19)
(2.08643 -0.0305908 0)
(2.13864 -0.0288345 0)
(2.18857 -0.0271872 0)
(2.23632 -0.0256413 3.61851e-19)
(2.28198 -0.02419 0)
(2.32567 -0.0228266 0)
(2.36746 -0.0215452 0)
(2.40745 -0.0203402 3.54736e-19)
(2.44573 -0.0192065 -3.53252e-19)
(2.48236 -0.018139 0)
(2.51742 -0.0171333 0)
(2.55098 -0.0161853 -3.49414e-19)
(2.58311 -0.0152915 -3.48326e-19)
(2.61386 -0.0144485 0)
(2.64331 -0.0136528 0)
(2.67149 -0.0129013 3.45569e-19)
(2.69847 -0.0121912 -3.44806e-19)
(2.7243 -0.0115199 0)
(2.74902 -0.0108851 0)
(2.77269 -0.0102849 -3.42942e-19)
(2.79535 -0.00971731 0)
(2.81702 -0.00918022 0)
(2.83777 -0.00867197 -3.41641e-19)
(2.85763 -0.00819099 0)
(2.87663 -0.00773549 -3.4105e-19)
(2.8948 -0.00730329 0)
(2.91219 -0.00689245 0)
(2.92881 -0.00650144 0)
(2.94471 -0.00612895 3.40438e-19)
(2.9599 -0.00577397 0)
(2.97441 -0.00543477 0)
(2.98824 -0.0051093 0)
(3.00142 -0.00479517 0)
(3.01395 -0.00448887 0)
(3.02582 -0.00418681 0)
(3.03702 -0.00388457 3.41015e-19)
(3.04752 -0.00357646 3.41291e-19)
(3.05727 -0.00325461 0)
(3.06617 -0.00290826 0)
(3.0741 -0.0025248 0)
(3.08086 -0.00209021 -3.43294e-19)
(3.08623 -0.00156683 0)
(3.08974 -0.000885638 6.90025e-19)
(3.09064 5.71943e-05 -6.92673e-19)
(3.08763 0.00146206 -6.96396e-19)
(3.07854 0.00373939 7.01881e-19)
(3.0583 0.00799846 -7.10535e-19)
(3.02049 0.0171996 7.2539e-19)
(2.8975 0.0449276 0)
(0.0112145 -0.0834208 0)
(0.0225007 -0.0738023 0)
(0.0249717 -0.0517347 2.0637e-19)
(0.0200369 -0.0256189 0)
(0.00581415 0.00328399 -1.73915e-19)
(-0.0156319 0.0318637 -1.56046e-19)
(-0.0425765 0.057189 -6.83956e-20)
(-0.074279 0.0794304 -6.05645e-20)
(-0.109605 0.0986892 0)
(-0.147855 0.114593 -4.76391e-20)
(-0.18876 0.127007 0)
(-0.232334 0.136517 0)
(-0.278419 0.143773 6.97278e-20)
(-0.326702 0.149263 3.19949e-20)
(-0.376865 0.153352 -5.87275e-20)
(-0.428622 0.156317 -5.43838e-20)
(-0.4817 0.158393 -2.54184e-20)
(-0.535803 0.159798 0)
(-0.590717 0.160708 0)
(-0.646312 0.161169 0)
(-0.702475 0.161246 -1.97582e-20)
(-0.759095 0.161011 0)
(-0.816069 0.160524 5.41882e-20)
(-0.873315 0.159836 0)
(-0.930768 0.158988 0)
(-0.988377 0.158017 1.60506e-20)
(-1.0461 0.156954 0)
(-1.10391 0.155822 -1.49852e-20)
(-1.16177 0.154644 -2.87999e-20)
(-1.21968 0.153436 1.41151e-20)
(-1.27761 0.152212 0)
(-1.33557 0.150983 0)
(-1.39353 0.149759 0)
(-1.4515 0.148546 -2.53466e-20)
(-1.50948 0.147349 -2.48296e-20)
(-1.56746 0.146172 -1.2312e-20)
(-1.62545 0.145017 0)
(-1.68345 0.143884 2.37988e-20)
(-1.74146 0.142774 0)
(-1.79948 0.141687 -2.31067e-20)
(-1.85751 0.140622 0)
(-1.91556 0.139576 0)
(-1.97362 0.13855 2.22684e-20)
(-2.0317 0.137539 0)
(-2.08977 0.136541 6.49168e-20)
(-2.14785 0.135552 -2.16157e-20)
(-2.20593 0.134569 0)
(-2.26398 0.133587 -2.12592e-20)
(-2.32201 0.132601 -2.10999e-20)
(-2.37998 0.131605 0)
(-2.43789 0.130595 0)
(-2.49571 0.129562 0)
(-2.55341 0.1285 0)
(-2.61096 0.1274 0)
(-2.66831 0.126252 2.03212e-20)
(-2.72542 0.125045 3.99296e-20)
(-2.78224 0.123767 -2.0098e-20)
(-2.83871 0.122403 0)
(-2.89476 0.120938 3.92877e-20)
(-2.9503 0.119353 -1.9308e-20)
(-3.00526 0.117627 0)
(-3.05951 0.115737 -1.95186e-20)
(-3.11296 0.113658 0)
(-3.16545 0.111358 0)
(-3.21685 0.108804 -3.78095e-20)
(-3.26697 0.105957 1.89303e-20)
(-3.31561 0.102774 -3.71632e-20)
(-3.36257 0.0992045 3.67934e-20)
(-3.40757 0.0951945 1.83346e-20)
(-3.45035 0.0906823 0)
(-3.49056 0.0855999 1.78263e-20)
(-3.52786 0.0798728 0)
(-3.56185 0.073421 0)
(-3.59204 0.0661598 0)
(-3.61794 0.0579989 1.64122e-20)
(-3.63899 0.0488376 0)
(-3.6546 0.0385586 3.10756e-20)
(-3.66412 0.0270427 -4.49748e-20)
(-3.66671 0.0142115 -1.43092e-20)
(-3.66154 8.55669e-05 0)
(-3.64799 -0.0152568 -1.28277e-20)
(-3.62522 -0.031783 0)
(-3.59243 -0.0494362 -2.20977e-20)
(-3.54887 -0.068094 0)
(-3.49386 -0.0875669 -1.79067e-20)
(-3.42682 -0.107601 3.32953e-20)
(-3.34736 -0.127882 1.30719e-20)
(-3.25523 -0.148049 0)
(-3.15046 -0.167707 0)
(-3.03328 -0.186453 0)
(-2.90423 -0.203895 -1.5974e-21)
(-2.76406 -0.219681 0)
(-2.61378 -0.233516 -4.90153e-21)
(-2.45459 -0.245179 0)
(-2.28781 -0.254531 3.13454e-20)
(-2.11489 -0.261519 1.53227e-20)
(-1.9373 -0.26617 1.89231e-20)
(-1.7565 -0.268582 0)
(-1.57389 -0.268912 0)
(-1.39078 -0.267356 0)
(-1.20832 -0.264139 0)
(-1.02756 -0.259493 0)
(-0.84934 -0.253656 7.83028e-20)
(-0.674381 -0.246862 8.59868e-20)
(-0.503206 -0.23943 0)
(-0.336141 -0.231646 -5.28026e-20)
(-0.173188 -0.223804 -5.67439e-20)
(-0.0138675 -0.215939 0)
(0.139739 -0.20784 -1.20365e-19)
(0.28774 -0.198703 0)
(0.429202 -0.188647 6.12597e-20)
(0.564936 -0.178792 0)
(0.694971 -0.169238 0)
(0.819442 -0.160063 -1.32495e-19)
(0.938514 -0.151301 0)
(1.05237 -0.142969 6.93867e-20)
(1.16122 -0.135069 0)
(1.26525 -0.127593 0)
(1.36468 -0.120531 6.98463e-20)
(1.45969 -0.113868 7.25521e-20)
(1.55051 -0.107587 0)
(1.63731 -0.101669 -7.23427e-20)
(1.72029 -0.096097 0)
(1.79963 -0.0908512 7.388e-20)
(1.8755 -0.085913 1.50596e-19)
(1.94807 -0.0812638 0)
(2.01751 -0.0768864 0)
(2.08396 -0.0727644 0)
(2.14757 -0.0688819 0)
(2.20848 -0.0652237 1.58192e-19)
(2.2668 -0.0617756 4.76304e-19)
(2.32268 -0.0585243 0)
(2.37622 -0.0554575 0)
(2.42753 -0.0525635 0)
(2.47672 -0.0498315 -1.64138e-19)
(2.52389 -0.0472516 0)
(2.56913 -0.0448145 0)
(2.61253 -0.0425112 3.34025e-19)
(2.65418 -0.0403335 1.67618e-19)
(2.69415 -0.0382734 1.69956e-19)
(2.73252 -0.0363238 0)
(2.76937 -0.0344785 0)
(2.80475 -0.0327316 1.73419e-19)
(2.83875 -0.0310773 -1.73684e-19)
(2.8714 -0.0295101 0)
(2.90279 -0.0280249 0)
(2.93295 -0.0266171 -1.78019e-19)
(2.96195 -0.0252822 5.3679e-19)
(2.98984 -0.0240159 0)
(3.01666 -0.0228148 0)
(3.04246 -0.0216757 1.82603e-19)
(3.06728 -0.0205954 0)
(3.09117 -0.019571 3.69237e-19)
(3.11417 -0.0185992 -1.85517e-19)
(3.13632 -0.0176768 0)
(3.15765 -0.0168006 1.883e-19)
(3.17819 -0.0159671 3.78428e-19)
(3.19799 -0.0151739 0)
(3.21707 -0.0144186 0)
(3.23547 -0.0136987 -1.92811e-19)
(3.25321 -0.0130112 0)
(3.2703 -0.0123525 3.89759e-19)
(3.28677 -0.0117182 0)
(3.30263 -0.011103 0)
(3.31789 -0.0104995 0)
(3.33255 -0.00989952 0)
(3.3466 -0.00929276 -2.00629e-19)
(3.36001 -0.00866522 -2.01764e-19)
(3.37272 -0.00799754 0)
(3.38467 -0.00726266 0)
(3.39572 -0.00642442 0)
(3.4057 -0.00543676 2.06646e-19)
(3.41426 -0.00420827 0)
(3.42101 -0.0025799 -4.1881e-19)
(3.42526 -0.000294619 4.22012e-19)
(3.42587 0.0031249 4.25882e-19)
(3.421 0.00861988 4.3057e-19)
(3.40681 0.0184324 4.3819e-19)
(3.38102 0.0380924 4.48363e-19)
(3.31322 0.0849295 0)
(-0.00282362 -0.0986874 0)
(-0.00696602 -0.0673496 0)
(-0.0223184 -0.0260805 -1.52413e-19)
(-0.0448385 0.0169668 -1.21765e-19)
(-0.0707298 0.0565421 1.02088e-19)
(-0.0994308 0.0919221 8.84447e-20)
(-0.130603 0.123207 1.44112e-22)
(-0.16407 0.150611 0)
(-0.199539 0.174256 0)
(-0.236806 0.194199 0)
(-0.275839 0.210585 0)
(-0.316652 0.223769 0)
(-0.359181 0.234198 -1.33573e-19)
(-0.403298 0.242311 0)
(-0.448849 0.248501 3.85973e-20)
(-0.495673 0.253109 3.61611e-20)
(-0.54361 0.256426 0)
(-0.592491 0.258692 0)
(-0.642157 0.260084 0)
(-0.692487 0.26074 0)
(-0.743385 0.260787 2.7543e-20)
(-0.794768 0.260337 0)
(-0.84656 0.259488 -2.52487e-20)
(-0.898698 0.258321 0)
(-0.951127 0.256903 0)
(-1.0038 0.255292 0)
(-1.05668 0.253533 -4.36209e-20)
(-1.10974 0.251666 0)
(-1.16294 0.249722 2.06461e-20)
(-1.21627 0.247729 -4.00562e-20)
(-1.26971 0.245707 0)
(-1.32324 0.243673 0)
(-1.37686 0.24164 0)
(-1.43054 0.23962 1.84178e-20)
(-1.48429 0.237619 1.80846e-20)
(-1.5381 0.235642 0)
(-1.59196 0.233692 0)
(-1.64587 0.231771 -3.4302e-20)
(-1.69981 0.229879 -3.38391e-20)
(-1.7538 0.228014 3.34169e-20)
(-1.80781 0.226175 0)
(-1.86185 0.224357 0)
(-1.91591 0.222558 0)
(-1.96998 0.220772 0)
(-2.02405 0.218992 -3.201e-20)
(-2.07811 0.217213 -3.15548e-20)
(-2.13214 0.215427 3.13301e-20)
(-2.18612 0.213625 0)
(-2.24005 0.211798 0)
(-2.29388 0.209937 0)
(-2.3476 0.208029 0)
(-2.40118 0.206063 -3.04346e-20)
(-2.45457 0.204025 0)
(-2.50775 0.2019 0)
(-2.56065 0.199671 -3.00062e-20)
(-2.61323 0.197318 -3.00599e-20)
(-2.66542 0.194822 0)
(-2.71716 0.192157 5.91867e-20)
(-2.76837 0.189298 -2.96243e-20)
(-2.81896 0.186214 2.9467e-20)
(-2.86883 0.182874 0)
(-2.91787 0.179239 0)
(-2.96595 0.175267 0)
(-3.01295 0.170913 0)
(-3.05869 0.166121 2.84799e-20)
(-3.10301 0.160834 5.62327e-20)
(-3.1457 0.154984 2.79389e-20)
(-3.18655 0.148498 -2.76244e-20)
(-3.22531 0.141292 0)
(-3.2617 0.133275 5.37119e-20)
(-3.29541 0.124347 5.29041e-20)
(-3.32612 0.114398 5.20103e-20)
(-3.35343 0.103312 -5.10224e-20)
(-3.37691 0.0909628 0)
(-3.39611 0.0772221 -7.29771e-20)
(-3.4105 0.061948 0)
(-3.41959 0.0449864 2.31829e-20)
(-3.42275 0.0261932 2.1936e-20)
(-3.41917 0.00549603 0)
(-3.40838 -0.0170748 0)
(-3.3896 -0.0414812 3.83746e-20)
(-3.36211 -0.0676812 0)
(-3.32518 -0.0955654 3.34575e-20)
(-3.2781 -0.124934 0)
(-3.22024 -0.155491 -2.77946e-20)
(-3.15105 -0.186838 -4.79009e-20)
(-3.07012 -0.218486 0)
(-2.9772 -0.249868 0)
(-2.87228 -0.280362 0)
(-2.75556 -0.30933 -1.04148e-20)
(-2.62752 -0.336153 0)
(-2.48886 -0.36027 -2.31179e-21)
(-2.34055 -0.381217 0)
(-2.18375 -0.398645 0)
(-2.01975 -0.412345 -2.36567e-20)
(-1.84998 -0.422247 0)
(-1.67586 -0.428412 -1.97097e-20)
(-1.49882 -0.431019 0)
(-1.32023 -0.430339 -2.87677e-20)
(-1.14132 -0.426712 0)
(-0.963206 -0.42052 0)
(-0.786846 -0.412174 0)
(-0.613025 -0.402105 -1.41995e-19)
(-0.442378 -0.390746 -5.31809e-20)
(-0.275364 -0.378653 0)
(-0.112383 -0.366035 0)
(0.0471131 -0.352825 0)
(0.200255 -0.339011 0)
(0.347501 -0.324598 6.95142e-20)
(0.488991 -0.309661 -1.39405e-19)
(0.624825 -0.29454 -7.3387e-20)
(0.755269 -0.279699 1.47106e-19)
(0.8804 -0.265311 1.50642e-19)
(1.00034 -0.251471 7.84442e-20)
(1.11524 -0.238226 0)
(1.22525 -0.225598 1.60247e-19)
(1.33055 -0.213591 0)
(1.43131 -0.202198 -1.6599e-19)
(1.52771 -0.191405 -8.54418e-20)
(1.61995 -0.181194 0)
(1.70819 -0.171542 1.7389e-19)
(1.79261 -0.162424 8.91036e-20)
(1.8734 -0.153816 0)
(1.95071 -0.145692 8.97667e-20)
(2.02471 -0.138026 -2.76014e-19)
(2.09555 -0.130792 0)
(2.16338 -0.123967 0)
(2.22835 -0.117527 0)
(2.29058 -0.111449 0)
(2.35021 -0.10571 -1.94592e-19)
(2.40736 -0.100291 -1.97838e-19)
(2.46215 -0.0951722 0)
(2.51468 -0.090336 0)
(2.56506 -0.0857653 0)
(2.61339 -0.0814439 0)
(2.65976 -0.0773571 0)
(2.70427 -0.0734909 0)
(2.74699 -0.0698321 -2.12068e-19)
(2.78801 -0.0663681 -7.14905e-22)
(2.82741 -0.0630874 0)
(2.86526 -0.0599794 0)
(2.90163 -0.0570348 -2.19449e-19)
(2.93657 -0.0542443 0)
(2.97017 -0.0515991 2.24033e-19)
(3.00247 -0.0490909 2.25495e-19)
(3.03354 -0.0467121 0)
(3.06342 -0.0444554 0)
(3.09217 -0.0423142 -2.31948e-19)
(3.11984 -0.0402823 -4.66993e-19)
(3.14648 -0.0383539 0)
(3.17213 -0.0365239 0)
(3.19683 -0.0347874 0)
(3.22063 -0.0331395 -2.41777e-19)
(3.24357 -0.0315753 2.4373e-19)
(3.26569 -0.0300898 0)
(3.28702 -0.0286781 4.9465e-19)
(3.30759 -0.0273357 2.48993e-19)
(3.32745 -0.0260586 -5.02447e-19)
(3.34661 -0.0248431 0)
(3.36512 -0.0236846 0)
(3.38299 -0.022578 -5.14035e-19)
(3.40024 -0.0215176 -2.59159e-19)
(3.41691 -0.0204962 0)
(3.43299 -0.0195054 0)
(3.4485 -0.0185343 0)
(3.46345 -0.01757 0)
(3.47782 -0.0165959 -5.36939e-19)
(3.49158 -0.0155894 0)
(3.50469 -0.0145198 0)
(3.51708 -0.0133438 0)
(3.52865 -0.0120007 0)
(3.53922 -0.0104032 0)
(3.54852 -0.00841487 0)
(3.55618 -0.0058057 -5.66588e-19)
(3.56163 -0.00218764 0)
(3.564 0.00312387 0)
(3.56205 0.011401 -1.17469e-18)
(3.55348 0.0253132 5.99633e-19)
(3.53903 0.0504854 -6.19374e-19)
(3.50537 0.0998865 6.48342e-19)
(-0.0159344 -0.0705312 0)
(-0.0336418 -0.0224977 3.38504e-19)
(-0.0607215 0.0290262 0)
(-0.0903309 0.0756877 8.58751e-20)
(-0.120931 0.117945 0)
(-0.152385 0.15612 0)
(-0.184833 0.190205 -5.54404e-20)
(-0.218329 0.220205 0)
(-0.252861 0.246207 0)
(-0.288429 0.26838 0)
(-0.325067 0.286969 0)
(-0.362809 0.3023 0)
(-0.401661 0.314741 1.3272e-19)
(-0.441592 0.324666 6.21105e-20)
(-0.48255 0.332429 -5.83816e-20)
(-0.524464 0.338354 0)
(-0.567253 0.34273 0)
(-0.610831 0.345805 0)
(-0.655113 0.347791 0)
(-0.700021 0.348866 0)
(-0.74549 0.34918 4.32394e-20)
(-0.791458 0.348866 4.15452e-20)
(-0.837871 0.348037 -4.00166e-20)
(-0.884677 0.346789 3.86349e-20)
(-0.931832 0.345204 0)
(-0.979295 0.34335 0)
(-1.02703 0.341286 3.52457e-20)
(-1.07501 0.339061 0)
(-1.1232 0.336715 0)
(-1.17157 0.334283 3.26999e-20)
(-1.22011 0.331791 3.1955e-20)
(-1.26881 0.329261 3.13125e-20)
(-1.31763 0.326713 0)
(-1.36657 0.324159 0)
(-1.41562 0.32161 -2.97068e-20)
(-1.46476 0.319073 0)
(-1.51398 0.316552 0)
(-1.56328 0.314051 2.85577e-20)
(-1.61265 0.31157 -2.8087e-20)
(-1.66207 0.309109 2.77799e-20)
(-1.71154 0.306663 0)
(-1.76105 0.30423 0)
(-1.81059 0.301804 5.41798e-20)
(-1.86014 0.299377 0)
(-1.9097 0.296942 5.3381e-20)
(-1.95925 0.294489 7.9627e-20)
(-2.00878 0.292008 -7.91525e-20)
(-2.05825 0.289488 5.24289e-20)
(-2.10766 0.286915 0)
(-2.15698 0.284275 0)
(-2.20617 0.281551 5.16905e-20)
(-2.25521 0.278726 2.58082e-20)
(-2.30405 0.275779 0)
(-2.35266 0.27269 0)
(-2.40098 0.269434 2.55062e-20)
(-2.44896 0.265985 5.06996e-20)
(-2.49653 0.262313 0)
(-2.54363 0.258386 -5.04094e-20)
(-2.59018 0.254165 5.01043e-20)
(-2.63608 0.249612 -4.98844e-20)
(-2.68124 0.244681 0)
(-2.72554 0.23932 0)
(-2.76887 0.233474 0)
(-2.81109 0.227079 0)
(-2.85203 0.220065 0)
(-2.89153 0.212353 -4.80132e-20)
(-2.92939 0.203855 0)
(-2.96541 0.194474 0)
(-2.99934 0.184101 0)
(-3.03092 0.172619 -9.17938e-20)
(-3.05986 0.159897 -4.50992e-20)
(-3.08585 0.145792 -4.4304e-20)
(-3.10851 0.130154 8.71439e-20)
(-3.12745 0.112822 -4.27999e-20)
(-3.14224 0.0936287 4.13705e-20)
(-3.15241 0.0723926 0)
(-3.1575 0.0489246 -3.88924e-20)
(-3.15691 0.0230527 0)
(-3.14989 -0.00530479 0)
(-3.13605 -0.0361378 0)
(-3.11462 -0.0694437 -6.50335e-20)