/*--------------------------------*- C++ -*----------------------------------*\
| =========                 |                                                 |
| \\      /  F ield         | OpenFOAM: The Open Source CFD Toolbox           |
|  \\    /   O peration     | Version:  1.4.2                                 |
|   \\  /    A nd           | Web:      http://www.openfoam.org               |
|    \\/     M anipulation  |                                                 |
\*---------------------------------------------------------------------------*/
FoamFile
{
    version     2.0;
    format      ascii;
    class       volScalarField;
    object      epsilon;
    location    "850";
}
// * * * * * * * * * * * * * * * * * * * * * * * * * * * * * * * * * * * * * //

dimensions      [0 2 -3 0 0 0 0];

internalField   nonuniform List<scalar> 
12225
(
443.026
353.452
290.586
245.345
212.188
187.594
169.244
155.572
145.485
138.21
133.183
129.985
128.3
127.881
128.529
130.083
132.409
135.67
60.1656
73.6155
79.568
83.6951
87.7143
92.3542
97.9689
104.74
112.767
122.1
132.76
144.739
158
172.481
188.083
204.672
222
240.135
26.2958
33.71
37.845
40.6833
42.9299
44.9527
46.964
49.0919
51.4159
53.9869
56.8368
59.9838
63.4339
67.1813
71.2053
75.4624
79.863
84.244
18.7355
22.7235
25.4806
27.3758
28.8178
30.0126
31.0724
32.0707
33.0569
34.0635
35.1124
36.2169
37.3843
38.6165
39.9096
41.2531
42.627
43.9874
16.1687
18.1634
19.9327
21.292
22.3446
23.1852
23.8877
24.5054
25.0723
25.6103
26.1342
26.6544
27.1775
27.7073
28.2452
28.7897
29.3371
29.8685
15.2354
16.0864
17.0484
17.9369
18.6892
19.3116
19.8309
20.2729
20.659
21.0059
21.3258
21.6276
21.9171
22.1984
22.4739
22.7446
23.0098
23.259
14.8942
15.17
15.5864
16.0522
16.5062
16.9217
17.2896
17.6101
17.8892
18.1349
18.3542
18.5533
18.7368
18.9084
19.0707
19.2253
19.3722
19.5052
14.7876
14.838
14.9915
15.2092
15.4537
15.7009
15.9368
16.1543
16.351
16.5277
16.6862
16.8291
16.959
17.0782
17.1887
17.292
17.3884
17.4747
14.7441
14.6884
14.7003
14.7662
14.8675
14.9882
15.1164
15.244
15.3662
15.4805
15.5861
15.6828
15.7713
15.8524
15.927
15.9961
16.0602
16.1178
14.7239
14.6134
14.5425
14.5091
14.5063
14.5261
14.5613
14.6058
14.655
14.7057
14.7558
14.8039
14.8494
14.8919
14.9315
14.9683
15.0025
15.0331
14.7149
14.579
14.4658
14.3758
14.3077
14.2585
14.2249
14.2034
14.191
14.1852
14.184
14.1858
14.1895
14.1943
14.1996
14.205
14.2104
14.215
14.7109
14.5642
14.4319
14.3142
14.2111
14.1218
14.0449
13.9791
13.9228
13.8744
13.8326
13.7964
13.7645
13.7363
13.711
13.6881
13.6673
13.6482
14.7089
14.5577
14.4176
14.2882
14.1691
14.0601
13.9605
13.8699
13.7873
13.7121
13.6436
13.5809
13.5235
13.4707
13.422
13.3769
13.335
13.2966
14.7076
14.5544
14.4112
14.2772
14.1517
14.0345
13.925
13.8227
13.7273
13.6382
13.555
13.4774
13.4048
13.3368
13.2731
13.2133
13.1573
13.1055
14.7067
14.5523
14.4076
14.2717
14.1439
14.0235
13.9101
13.8032
13.7025
13.6074
13.5177
13.433
13.353
13.2774
13.2059
13.1382
13.0743
13.0149
14.706
14.5507
14.4052
14.2684
14.1394
14.0178
13.9029
13.7943
13.6915
13.5941
13.5018
13.4143
13.3313
13.2524
13.1775
13.1063
13.0389
12.9759
14.7055
14.5497
14.4036
14.2662
14.1367
14.0144
13.8988
13.7894
13.6857
13.5874
13.494
13.4054
13.3212
13.241
13.1648
13.0923
13.0234
12.9591
14.7053
14.5494
14.403
14.2654
14.1356
14.013
13.8971
13.7873
13.6833
13.5846
13.4909
13.4019
13.3173
13.2369
13.1603
13.0875
13.0184
12.9539
14.7055
14.5497
14.4035
14.2659
14.1362
14.0138
13.8981
13.7886
13.685
13.5868
13.4937
13.4054
13.3216
13.2421
13.1666
13.0949
13.027
12.9637
14.706
14.5507
14.4051
14.2683
14.1396
14.0185
13.9045
13.7971
13.696
13.6006
13.5107
13.426
13.346
13.2705
13.1992
13.1319
13.0684
13.0096
14.7068
14.5528
14.4093
14.2755
14.151
14.0353
13.928
13.8284
13.7361
13.6504
13.5709
13.4969
13.4279
13.3636
13.3034
13.2471
13.1945
13.1461
14.7086
14.5589
14.4227
14.3001
14.1905
14.0931
14.0069
13.9303
13.8623
13.8016
13.747
13.6976
13.6526
13.6113
13.5731
13.5376
13.5046
13.4743
14.7142
14.5802
14.4708
14.3853
14.3209
14.2739
14.2405
14.2172
14.2011
14.1898
14.1815
14.175
14.1693
14.1638
14.1581
14.1518
14.1451
14.1383
14.7358
14.6588
14.6349
14.6534
14.7004
14.7639
14.8349
14.9068
14.9754
15.0383
15.0944
15.1431
15.1847
15.2195
15.2481
15.2713
15.2898
15.3046
14.8205
14.9298
15.138
15.3947
15.6602
15.9123
16.1399
16.3383
16.5072
16.6491
16.7675
16.8658
16.9471
17.0144
17.0699
17.1159
17.154
17.1858
15.1412
15.7855
16.517
17.2067
17.796
18.2812
18.6742
18.9897
19.2424
19.4453
19.6092
19.7427
19.8527
19.9444
20.0219
20.0885
20.1466
20.1979
16.3189
18.2995
19.9621
21.2351
22.1813
22.8822
23.4045
23.7998
24.1052
24.3458
24.5398
24.7003
24.8371
24.9574
25.0667
25.1688
25.2666
25.3617
20.7544
25.6375
28.6922
30.5982
31.8393
32.6631
33.2222
33.6186
33.9176
34.1614
34.3773
34.5833
34.7909
35.0072
35.2368
35.4818
35.7429
36.0193
43.9611
54.4815
58.7073
60.4207
60.9762
60.9915
60.8475
60.7574
60.7884
60.9697
61.3103
61.8085
62.4572
63.2461
64.1635
65.1971
66.3321
67.561
332.626
280.253
240.732
210.192
186.153
166.941
151.386
138.653
128.129
119.362
112.006
105.799
100.536
96.0549
92.2271
88.9495
86.1385
83.725
0.00530112
0.00642326
0.00883418
0.0117347
0.0147809
0.0177775
0.0206288
0.0233062
0.025842
0.028328
0.0309074
0.0337527
0.0371075
0.0410127
0.0455096
0.0506855
0.0566622
0.0635668
0.0714225
0.0802137
0.0899859
0.10094
0.113426
0.128024
0.144894
0.163924
0.185573
0.210229
0.238259
0.270027
0.305905
0.346271
0.391516
0.442048
0.498298
0.560716
0.629785
0.706018
0.789961
0.882198
0.983356
1.0941
1.21515
1.34728
1.49129
1.64808
1.81858
2.00381
2.20487
2.42292
2.65923
2.91517
3.19223
3.49201
3.81628
4.16698
4.54627
4.95657
5.40064
5.88164
6.40329
6.97004
7.58726
8.26163
9.0016
9.81799
10.725
11.7415
12.8933
14.2155
15.758
17.5913
19.8186
22.5927
26.146
30.8409
37.2607
40.0101
42.7792
45.6955
48.7695
52.0073
55.4148
58.9974
62.7604
66.709
70.8482
75.1825
79.7164
84.4539
89.3989
94.5549
99.9248
105.511
111.317
117.343
123.592
130.063
136.759
143.678
150.82
158.183
165.767
173.569
181.585
189.811
198.242
206.872
215.692
224.695
233.869
243.203
252.682
262.291
272.014
281.831
291.724
301.672
311.654
321.651
331.643
341.613
351.548
361.436
371.275
381.069
390.83
400.456
409.945
419.295
428.504
437.57
446.493
455.271
463.905
472.397
480.746
488.955
497.025
504.957
512.752
520.408
527.927
535.304
542.536
549.618
556.543
563.303
569.889
576.288
582.487
588.468
594.215
599.704
604.91
609.809
614.373
618.571
622.369
625.731
628.618
630.994
632.815
634.04
634.625
634.525
633.701
632.11
629.719
626.494
622.463
617.578
611.886
605.77
598.752
591.088
589.151
586.33
582.234
558.869
0.0149123
0.0138396
0.0147645
0.0162181
0.0178498
0.0195891
0.021453
0.023503
0.0258462
0.028616
0.0319247
0.0358874
0.0405577
0.0460058
0.0523341
0.0596965
0.0683142
0.0785163
0.0903271
0.10379
0.119165
0.136694
0.156621
0.17918
0.20456
0.232946
0.264563
0.299642
0.338416
0.381122
0.428
0.479302
0.53529
0.596241
0.662449
0.73423
0.811923
0.895893
0.986535
1.08427
1.18957
1.30291
1.42484
1.55593
1.69679
1.84809
2.01056
2.18496
2.37214
2.57299
2.78851
3.01976
3.26789
3.53419
3.82005
4.12701
4.4568
4.81134
5.1928
5.60365
6.04674
6.52533
7.04323
7.60491
8.21561
8.88154
9.61001
10.4096
11.2905
12.2641
13.3434
14.5418
15.8715
17.3401
18.942
20.643
22.3476
23.8315
25.3388
26.9144
28.5668
30.2991
32.1138
34.0131
35.9992
38.074
40.2396
42.4977
44.8501
47.2984
49.8439
52.488
55.2316
58.0757
61.021
64.0681
67.2172
70.4683
73.8214
77.2759
80.8312
84.4863
88.2399
92.0901
96.0351
100.072
104.199
108.411
112.705
117.076
121.52
126.03
130.6
135.224
139.895
144.604
149.345
154.109
158.888
163.677
168.467
173.253
178.03
182.796
187.547
192.286
197.026
201.721
206.363
210.95
215.481
219.955
224.372
228.73
233.03
237.273
241.457
245.584
249.654
253.667
257.622
261.52
265.36
269.14
272.86
276.515
280.104
283.623
287.068
290.432
293.711
296.897
299.982
302.957
305.811
308.534
311.112
313.534
315.784
317.847
319.707
321.347
322.749
323.896
324.768
325.348
325.617
325.559
325.16
324.407
323.3
321.835
319.995
317.883
315.191
311.85
309.356
306.727
303.833
299.303
0.0275359
0.0232144
0.0229846
0.0239546
0.025499
0.0274882
0.0299811
0.0330736
0.036832
0.0413905
0.0467886
0.0530699
0.0604337
0.0689271
0.0786474
0.0897715
0.102474
0.116918
0.133235
0.15156
0.172055
0.194895
0.220273
0.248385
0.27943
0.313608
0.351131
0.39222
0.437103
0.486019
0.539216
0.596954
0.659506
0.727164
0.800239
0.879065
0.964
1.05543
1.15376
1.25945
1.37297
1.49484
1.6256
1.76584
1.9162
2.07737
2.25007
2.43508
2.63325
2.84549
3.07277
3.31616
3.57678
3.85589
4.15483
4.47506
4.8182
5.18601
5.58042
6.00358
6.45786
6.94588
7.47053
8.035
8.64277
9.29763
10.0036
10.7649
11.5856
12.4697
13.4201
14.4384
15.5237
16.6713
17.8716
19.1091
20.3655
21.6307
22.9402
24.308
25.7391
27.2362
28.8012
30.4359
32.1419
33.9207
35.774
37.703
39.7091
41.7935
43.9571
46.2008
48.5255
50.9317
53.4198
55.9901
58.6427
61.3774
64.1938
67.0913
70.0693
73.1265
76.2617
79.4733
82.7593
86.1175
89.5455
93.0402
96.5984
100.216
103.89
107.616
111.388
115.202
119.052
122.932
126.838
130.762
134.7
138.646
142.594
146.539
150.478
154.407
158.323
162.226
166.106
169.947
173.743
177.492
181.192
184.842
188.441
191.988
195.482
198.923
202.311
205.644
208.924
212.15
215.32
218.434
221.491
224.49
227.429
230.306
233.117
235.86
238.531
241.126
243.64
246.066
248.4
250.633
252.758
254.766
256.648
258.393
259.992
261.432
262.702
263.788
264.678
265.358
265.814
266.031
265.996
265.694
265.114
264.241
263.067
261.586
259.793
257.767
255.457
252.976
250.73
248.453
246.188
244.163
0.0460375
0.0351703
0.0332578
0.0340714
0.0362702
0.0394182
0.0434085
0.0483076
0.0542006
0.0609266
0.0685563
0.0772389
0.0871206
0.0983314
0.111
0.125259
0.141237
0.159064
0.178867
0.200783
0.224962
0.251572
0.280798
0.312835
0.34789
0.386175
0.427915
0.473344
0.522708
0.576266
0.63429
0.697065
0.764896
0.838104
0.917034
1.00205
1.09355
1.19195
1.29769
1.41127
1.53318
1.66399
1.80427
1.95465
2.1158
2.28843
2.47331
2.67125
2.88313
3.10987
3.35248
3.61202
3.88965
4.18658
4.50414
4.84375
5.20692
5.59528
6.01061
6.45477
6.92977
7.43777
7.98102
8.5619
9.18283
9.84628
10.5547
11.3102
12.1149
12.9702
13.8768
14.8346
15.8422
16.8972
17.9963
19.1363
20.3159
21.5384
22.8128
24.145
25.538
26.9941
28.5152
30.1028
31.7587
33.4843
35.2811
37.1503
39.0933
41.111
43.2045
45.3746
47.622
49.9472
52.3505
54.8321
57.3919
60.0298
62.7453
65.5376
68.4059
71.349
74.3656
77.454
80.6123
83.8383
87.1296
90.4834
93.8968
97.3663
100.888
104.459
108.074
111.728
115.418
119.137
122.88
126.642
130.417
134.2
137.984
141.765
145.538
149.297
153.04
156.759
160.443
164.082
167.672
171.21
174.694
178.122
181.492
184.804
188.056
191.247
194.377
197.444
200.447
203.387
206.261
209.07
211.811
214.483
217.084
219.612
222.065
224.439
226.731
228.938
231.054
233.075
234.997
236.811
238.513
240.095
241.549
242.867
244.04
245.06
245.915
246.597
247.095
247.398
247.494
247.371
247.02
246.426
245.579
244.466
243.082
241.421
239.524
237.436
235.165
232.805
230.515
228.241
226.077
224.436
0.0703737
0.0501003
0.046427
0.0475149
0.0507065
0.055256
0.0609464
0.0676496
0.0751542
0.083584
0.0930691
0.103744
0.115737
0.129174
0.144172
0.160846
0.17931
0.199684
0.222096
0.246685
0.273606
0.30303
0.335146
0.370154
0.408268
0.449715
0.494731
0.543569
0.596491
0.653776
0.71572
0.782634
0.854849
0.932716
1.01661
1.10693
1.20409
1.30856
1.4208
1.54134
1.67071
1.80951
1.95834
2.11788
2.28882
2.4719
2.66793
2.87775
3.10226
3.34242
3.59925
3.87384
4.16732
4.48093
4.81595
5.17377
5.55584
5.96368
6.39893
6.86329
7.35851
7.88646
8.44901
9.04808
9.68558
10.3634
11.0832
11.8467
12.6551
13.5095
14.4107
15.3588
16.3539
17.3959
18.4846
19.6208
20.8063
22.0442
23.3387
24.6932
26.1102
27.5918
29.14
30.7564
32.4429
34.2011
36.0325
37.9386
39.9207
41.98
44.1176
46.3342
48.6308
51.0078
53.4656
56.0044
58.624
61.3242
64.1046
66.9642
69.9023
72.9174
76.0081
79.1728
82.4093
85.7156
89.089
92.527
96.0263
99.5839
103.196
106.859
110.568
114.319
118.107
121.927
125.772
129.638
133.518
137.404
141.292
145.174
149.043
152.895
156.723
160.511
164.253
167.94
171.568
175.133
178.634
182.067
185.429
188.72
191.938
195.081
198.147
201.135
204.045
206.875
209.623
212.289
214.87
217.367
219.775
222.094
224.321
226.452
228.486
230.417
232.244
233.96
235.563
237.047
238.405
239.633
240.723
241.669
242.464
243.101
243.572
243.868
243.981
243.903
243.625
243.136
242.428
241.491
240.313
238.886
237.215
235.318
233.227
230.973
228.584
226.13
223.696
221.301
219.043
217.268
0.100949
0.0684379
0.0626385
0.0637242
0.0677581
0.0735771
0.0805392
0.0883929
0.0971969
0.10705
0.118064
0.130352
0.14403
0.159208
0.175995
0.194502
0.21484
0.237132
0.261509
0.288117
0.317118
0.348689
0.383022
0.420326
0.460821
0.504743
0.552341
0.603876
0.659629
0.719894
0.784985
0.855232
0.930988
1.01263
1.10055
1.19517
1.29694
1.40635
1.52389
1.65011
1.78558
1.93091
2.08674
2.25378
2.43274
2.6244
2.82959
3.04918
3.28409
3.53531
3.80387
4.09088
4.39747
4.72489
5.07441
5.44737
5.84521
6.26939
6.72145
7.203
7.71569
8.2612
8.84126
9.45758
10.1119
10.8058
11.541
12.319
13.1411
14.0085
14.9225
15.884
16.8941
17.9538
19.0647
20.2285
21.4476
22.7249
24.0633
25.4656
26.9342
28.4713
30.0791
31.7595
33.5147
35.3464
37.2565
39.2466
41.3183
43.4729
45.7118
48.036
50.4464
52.9436
55.5282
58.2003
60.9598
63.8066
66.7401
69.7594
72.8636
76.0512
79.3207
82.6702
86.0976
89.6006
93.1766
96.8226
100.536
104.312
108.149
112.042
115.986
119.976
124.008
128.076
132.173
136.293
140.428
144.571
148.714
152.848
156.965
161.06
165.113
169.114
173.055
176.929
180.73
184.455
188.1
191.661
195.136
198.522
201.816
205.017
208.122
211.13
214.039
216.847
219.553
222.156
224.653
227.044
229.325
231.495
233.552
235.492
237.313
239.012
240.585
242.029
243.34
244.514
245.547
246.432
247.166
247.741
248.155
248.401
248.472
248.362
248.067
247.578
246.888
245.992
244.88
243.547
241.979
240.193
238.196
236.01
233.66
231.175
228.586
225.948
223.317
220.737
218.293
216.234
0.136838
0.0896859
0.0809317
0.0816496
0.0861967
0.0925995
0.100279
0.109074
0.118966
0.130002
0.142259
0.155833
0.170824
0.187336
0.205476
0.225354
0.247088
0.270806
0.296647
0.324764
0.355325
0.388513
0.424524
0.463572
0.505882
0.551694
0.601264
0.654864
0.712781
0.775321
0.84281
0.915591
0.994032
1.07852
1.16948
1.26734
1.37257
1.48567
1.60716
1.73761
1.87762
2.0278
2.18884
2.36144
2.54636
2.7444
2.9564
3.18325
3.42591
3.68538
3.96271
4.25901
4.57545
4.91326
5.27373
5.65821
6.06811
6.50488
6.97005
7.46519
7.99191
8.55187
9.14676
9.77828
10.4481
11.1581
11.9097
12.7048
13.5448
14.4316
15.3666
16.3515
17.388
18.4781
19.6239
20.8277
22.0921
23.42
24.8141
26.2772
27.8119
29.4207
31.1061
32.8705
34.7162
36.6454
38.6602
40.7628
42.9549
45.2382
47.6143
50.0846
52.65
55.3115
58.0697
60.9249
63.8772
66.9263
70.0716
73.3123
76.6473
80.0751
83.594
87.202
90.8967
94.6757
98.5362
102.475
106.489
110.575
114.728
118.945
123.22
127.549
131.926
136.344
140.796
145.275
149.771
154.276
158.779
163.271
167.742
172.179
176.557
180.869
185.106
189.26
193.327
197.3
201.175
204.948
208.615
212.172
215.617
218.946
222.157
225.247
228.214
231.057
233.772
236.36
238.817
241.141
243.331
245.384
247.298
249.07
250.697
252.177
253.507
254.684
255.705
256.566
257.264
257.794
258.153
258.337
258.343
258.167
257.804
257.25
256.502
255.555
254.404
253.047
251.471
249.687
247.694
245.506
243.14
240.616
237.957
235.19
232.346
229.468
226.6
223.792
221.107
218.724
0.176682
0.112819
0.100359
0.100062
0.104299
0.11095
0.119226
0.128814
0.139609
0.151607
0.164855
0.179428
0.195418
0.212926
0.232059
0.252933
0.275674
0.300416
0.327307
0.356507
0.388189
0.42254
0.45976
0.500062
0.543674
0.590839
0.641813
0.696872
0.756307
0.820429
0.889569
0.96408
1.04434
1.13074
1.22371
1.3237
1.43118
1.54668
1.67073
1.80391
1.94682
2.10011
2.26447
2.44063
2.62936
2.83147
3.04783
3.27935
3.527
3.7918
4.07482
4.3772
4.70012
5.04483
5.41265
5.80493
6.22311
6.66867
7.14315
7.64817
8.18536
8.75644
9.36315
10.0073
10.6907
11.4152
12.1827
12.9951
13.8544
14.7627
15.7218
16.7342
17.8019
18.9275
20.1136
21.3629
22.6783
24.0629
25.5197
27.0516
28.6617
30.3529
32.1281
33.9901
35.9416
37.9854
40.1241
42.3599
44.6954
47.1324
49.673
52.3187
55.0709
57.9308
60.8992
63.9764
67.1626
70.4577
73.8611
77.3719
80.9887
84.7101
88.5342
92.4586
96.4809
100.598
104.808
109.106
113.489
117.954
122.496
127.11
131.792
136.536
141.335
146.183
151.071
155.99
160.93
165.879
170.827
175.759
180.665
185.516
190.293
194.989
199.593
204.099
208.498
212.786
216.956
221.002
224.921
228.706
232.356
235.864
239.229
242.447
245.516
248.433
251.195
253.8
256.246
258.531
260.653
262.608
264.394
266.009
267.449
268.713
269.798
270.702
271.421
271.954
272.298
272.449
272.404
272.162
271.722
271.08
270.236
269.186
267.93
266.467
264.787
262.907
260.819
258.537
256.07
253.436
250.653
247.742
244.725
241.627
238.478
235.314
232.173
229.097
226.135
223.419
0.218059
0.136617
0.119398
0.117418
0.121242
0.128065
0.136814
0.147038
0.158551
0.171301
0.185307
0.200627
0.217345
0.23556
0.255385
0.27694
0.300358
0.325784
0.353371
0.383286
0.415705
0.450816
0.488819
0.529926
0.574364
0.62237
0.674203
0.730133
0.790452
0.855472
0.925523
1.00096
1.08216
1.16953
1.2635
1.36451
1.47307
1.58968
1.71489
1.84929
1.9935
2.14817
2.314
2.49173
2.68215
2.88608
3.10441
3.33806
3.58802
3.85533
4.14109
4.44645
4.77262
5.12089
5.4926
5.88916
6.31204
6.76279
7.24301
7.75437
8.29863
8.87759
9.49314
10.1472
10.8418
11.5791
12.3611
13.1902
14.0686
14.9988
15.9832
17.0246
18.1256
19.2893
20.5187
21.8169
23.1874
24.6334
26.1585
27.7661
29.4596
31.2425
33.1181
35.09
37.1612
39.3352
41.6148
44.0032
46.503
49.1167
51.8467
54.695
57.6633
60.7529
63.9649
67.2998
70.7578
74.3388
78.0421
81.8668
85.8115
89.8743
94.0532
98.3455
102.748
107.259
111.873
116.588
121.4
126.303
131.295
136.369
141.521
146.744
152.031
157.374
162.764
168.191
173.642
179.104
184.562
190.001
195.401
200.722
205.954
211.088
216.114
221.023
225.807
230.459
234.971
239.337
243.551
247.608
251.502
255.229
258.785
262.165
265.367
268.387
271.222
273.869
276.326
278.591
280.659
282.528
284.195
285.658
286.913
287.958
288.791
289.41
289.812
289.996
289.96
289.701
289.218
288.511
287.578
286.421
285.04
283.43
281.601
279.556
277.296
274.835
272.18
269.349
266.357
263.223
259.969
256.615
253.185
249.704
246.199
242.702
239.245
235.866
232.596
229.54
0.25704
0.158208
0.136622
0.133213
0.13665
0.143566
0.152659
0.163356
0.175402
0.188702
0.203248
0.219086
0.236291
0.254963
0.275216
0.297178
0.320991
0.346805
0.37478
0.405085
0.437898
0.473406
0.511804
0.5533
0.598113
0.646477
0.698643
0.754877
0.815467
0.880718
0.95096
1.02654
1.10785
1.19527
1.28924
1.39022
1.49869
1.61518
1.74022
1.87442
2.01839
2.17281
2.33836
2.5158
2.70593
2.90958
3.12764
3.36107
3.61087
3.87809
4.16386
4.46937
4.79587
5.14468
5.5172
5.9149
6.33932
6.79208
7.2749
7.78957
8.33796
8.92204
9.54387
10.2056
10.9095
11.658
12.4534
13.2984
14.1958
15.1483
16.159
17.2309
18.3674
19.5718
20.8479
22.1992
23.6297
25.1432
26.7437
28.4352
30.2219
32.1076
34.0965
36.1925
38.3995
40.7214
43.1618
45.7242
48.4118
51.2278
54.1748
57.2552
60.4711
63.8241
67.3154
70.9456
74.715
78.6232
82.6696
86.8529
91.1717
95.6236
100.206
104.917
109.751
114.707
119.78
124.965
130.259
135.656
141.152
146.742
152.419
158.177
164.008
169.903
175.853
181.843
187.861
193.891
199.915
205.914
211.838
217.669
223.396
229.006
234.49
239.838
245.04
250.088
254.974
259.691
264.231
268.587
272.753
276.723
280.492
284.057
287.412
290.553
293.478
296.183
298.664
300.918
302.941
304.731
306.282
307.591
308.657
309.476
310.046
310.366
310.433
310.245
309.801
309.099
308.139
306.922
305.445
303.718
301.743
299.52
297.062
294.379
291.48
288.385
285.108
281.672
278.095
274.401
270.613
266.754
262.85
258.927
255.009
251.127
247.308
243.584
239.975
236.572
0.291446
0.177341
0.151996
0.147308
0.150334
0.157244
0.166538
0.177539
0.189932
0.203584
0.218464
0.234604
0.252075
0.270974
0.291421
0.313551
0.337509
0.363453
0.391545
0.421954
0.454856
0.490432
0.52887
0.570368
0.615139
0.663405
0.71541
0.771411
0.831688
0.89654
0.96629
1.04128
1.12189
1.20851
1.30157
1.40151
1.50884
1.62405
1.74771
1.8804
2.02275
2.17542
2.33911
2.51459
2.70266
2.90416
3.12
3.35114
3.59862
3.86351
4.14698
4.45025
4.77463
5.12149
5.49231
5.88862
6.31209
6.76444
7.24752
7.76327
8.31375
8.90114
9.52773
10.1959
10.9083
11.6676
12.4766
13.3383
14.2559
15.2327
16.2722
17.3782
18.5543
19.8048
21.1338
22.5455
24.0445
25.6354
27.3227
29.1113
31.0056
33.0107
35.131
37.3714
39.7363
42.2303
44.8577
47.6224
50.5283
53.579
56.7776
60.1269
63.6293
67.2865
71.0998
75.0698
79.1966
83.4796
87.9178
92.5098
97.2535
102.146
107.185
112.367
117.686
123.141
128.724
134.433
140.262
146.206
152.258
158.414
164.667
171.009
177.433
183.929
190.484
197.084
203.714
210.354
216.984
223.555
230.027
236.389
242.629
248.733
254.692
260.495
266.13
271.589
276.863
281.942
286.82
291.486
295.933
300.154
304.145
307.9
311.413
314.681
317.699
320.462
322.968
325.211
327.189
328.895
330.324
331.473
332.338
332.917
333.208
333.209
332.917
332.328
331.443
330.263
328.788
327.019
324.958
322.616
320
317.115
313.981
310.61
307.022
303.239
299.284
295.181
290.957
286.637
282.248
277.818
273.374
268.942
264.55
260.226
255.993
251.879
247.897
244.127
0.32219
0.194428
0.165623
0.1597
0.162251
0.169034
0.178376
0.189508
0.202061
0.215869
0.230881
0.247117
0.264643
0.28356
0.303988
0.326068
0.349952
0.375799
0.403772
0.434035
0.466756
0.502106
0.540263
0.581415
0.62576
0.673512
0.724902
0.780178
0.839609
0.903486
0.972122
1.04585
1.12505
1.21009
1.30141
1.39944
1.50468
1.61763
1.73883
1.86889
2.00842
2.15808
2.3186
2.49073
2.67527
2.8731
3.08514
3.31237
3.55586
3.81671
4.09615
4.39544
4.71597
5.05919
5.42667
5.82007
6.24117
6.69185
7.17415
7.6902
8.24232
8.83292
9.46462
10.1402
10.8625
11.6347
12.4601
13.3422
14.2846
15.2913
16.3664
17.5142
18.7392
20.0462
21.4401
22.926
24.5092
26.1949
27.9886
29.8958
31.9219
34.0724
36.3527
38.7684
41.3246
44.0265
46.879
49.8867
53.0538
56.3844
59.882
63.5496
67.3898
71.4045
75.5948
79.9612
84.503
89.2191
94.1082
99.1681
104.396
109.79
115.344
121.055
126.918
132.927
139.078
145.365
151.781
158.322
164.98
171.749
178.622
185.591
192.649
199.784
206.982
214.226
221.497
228.773
236.009
243.144
250.163
257.054
263.801
270.394
276.821
283.07
289.13
294.99
300.64
306.072
311.277
316.241
320.956
325.416
329.614
333.544
337.202
340.581
343.676
346.483
348.997
351.212
353.125
354.73
356.016
356.981
357.623
357.937
357.922
357.575
356.894
355.875
354.52
352.829
350.804
348.449
345.77
342.777
339.483
335.9
332.048
327.948
323.624
319.104
314.416
309.59
304.656
299.646
294.589
289.519
284.466
279.46
274.529
269.701
264.999
260.447
256.052
251.889
0.349288
0.209586
0.177584
0.170451
0.172455
0.178987
0.188222
0.199312
0.211841
0.225614
0.240563
0.2567
0.274086
0.292824
0.31304
0.33488
0.358499
0.384054
0.411704
0.441604
0.47391
0.50878
0.546377
0.586875
0.630461
0.677334
0.727712
0.781834
0.839956
0.902359
0.969348
1.04125
1.11842
1.20125
1.29014
1.38554
1.48793
1.59781
1.71573
1.84228
1.97809
2.12382
2.28019
2.44798
2.62801
2.82117
3.0284
3.25074
3.48927
3.74519
4.01975
4.31434
4.63042
4.96957
5.33349
5.724
6.14307
6.59279
7.07544
7.59345
8.14943
8.74617
9.38667
10.0741
10.812
11.6038
12.4536
13.3653
14.3433
15.3923
16.5171
17.7227
19.0147
20.3985
21.8801
23.4653
25.1605
26.9719
28.9058
30.9685
33.1663
35.5053
37.9918
40.632
43.4317
46.3966
49.5322
52.8435
56.335
60.0109
63.8749
67.9301
72.179
76.6234
81.2644
86.1017
91.1333
96.3567
101.77
107.37
113.154
119.118
125.255
131.562
138.031
144.657
151.433
158.352
165.408
172.594
179.903
187.326
194.857
202.486
210.207
218.008
225.87
233.773
241.695
249.59
257.38
265.051
272.586
279.971
287.192
294.236
301.093
307.75
314.197
320.419
326.406
332.149
337.643
342.865
347.807
352.463
356.827
360.893
364.654
368.103
371.235
374.046
376.528
378.675
380.481
381.939
383.043
383.786
384.166
384.179
383.82
383.088
381.98
380.496
378.636
376.401
373.795
370.823
367.494
363.821
359.819
355.506
350.905
346.04
340.942
335.642
330.175
324.576
318.88
313.123
307.34
301.568
295.843
290.198
284.666
279.274
274.048
269.009
264.16
259.574
0.373135
0.223006
0.188022
0.179693
0.181084
0.187253
0.19624
0.20713
0.219466
0.233029
0.247737
0.263594
0.280663
0.299048
0.318884
0.34032
0.363515
0.388619
0.415782
0.445144
0.476843
0.511023
0.547832
0.587428
0.629982
0.675683
0.724734
0.777363
0.833815
0.89436
0.959296
1.02894
1.10365
1.1838
1.26979
1.36207
1.46112
1.56744
1.68158
1.80414
1.93575
2.0771
2.22893
2.39202
2.56724
2.75551
2.95784
3.1753
3.40907
3.66042
3.93074
4.22153
4.53441
4.87114
5.23364
5.62395
6.04433
6.49717
6.9851
7.51096
8.07779
8.68891
9.34787
10.0585
10.8249
11.6514
12.5427
13.5036
14.5394
15.6554
16.8577
18.1522
19.5454
21.044
22.6549
24.3851
26.2422
28.2335
30.3664
32.6483
35.0854
37.6848
40.4532
43.3974
46.5239
49.8386
53.3471
57.0543
60.9648
65.0824
69.4104
73.9515
78.7078
83.6807
88.8709
94.2782
99.8965
105.721
111.749
117.977
124.4
131.014
137.811
144.784
151.927
159.231
166.688
174.292
182.033
189.906
197.9
206.007
214.218
222.523
230.914
239.388
247.912
256.458
264.977
273.385
281.666
289.805
297.784
305.591
313.21
320.63
327.84
334.83
341.587
348.096
354.343
360.319
366.014
371.413
376.506
381.285
385.742
389.871
393.664
397.113
400.213
402.959
405.344
407.357
408.993
410.243
411.102
411.563
411.621
411.272
410.512
409.34
407.755
405.758
403.349
400.527
397.3
393.675
389.664
385.279
380.54
375.469
370.089
364.432
358.529
352.418
346.139
339.733
333.238
326.693
320.14
313.62
307.174
300.841
294.656
288.651
282.852
277.282
271.94
266.899
0.394546
0.235003
0.197162
0.187645
0.188371
0.194091
0.202723
0.213289
0.225297
0.238509
0.25283
0.26826
0.284864
0.302756
0.322079
0.342991
0.365647
0.390189
0.416748
0.445446
0.476406
0.509751
0.545615
0.58414
0.625487
0.669828
0.717357
0.768289
0.822863
0.881341
0.944016
1.01121
1.08326
1.16055
1.2435
1.33255
1.42818
1.53092
1.64133
1.76003
1.88769
2.02501
2.17278
2.33185
2.50314
2.68765
2.88647
3.1008
3.33196
3.58137
3.8506
4.14137
4.45557
4.79527
5.16271
5.56036
5.99086
6.45713
6.96231
7.50985
8.10351
8.74734
9.44577
10.2036
11.0258
11.918
12.886
13.9356
15.0731
16.3052
17.6391
19.0821
20.642
22.3267
24.1444
26.1036
28.2128
30.4809
32.9168
35.5292
38.3224
41.3035
44.4799
47.8587
51.446
55.2476
59.2683
63.5123
67.983
72.6832
77.6148
82.7795
88.1778
93.8102
99.6769
105.782
112.108
118.644
125.391
132.344
139.498
146.845
154.378
162.087
169.963
177.997
186.179
194.503
202.959
211.539
220.232
229.027
237.911
246.875
255.906
264.99
274.103
283.167
292.11
300.916
309.57
318.055
326.358
334.463
342.357
350.028
357.466
364.67
371.62
378.296
384.687
390.779
396.561
402.023
407.153
411.942
416.382
420.464
424.181
427.523
430.485
433.059
435.237
437.012
438.376
439.321
439.842
439.931
439.583
438.793
437.558
435.875
433.745
431.167
428.143
424.676
420.774
416.446
411.706
406.571
401.06
395.198
389.013
382.538
375.809
368.866
361.755
354.527
347.217
339.868
332.526
325.237
318.046
310.996
304.129
297.479
291.076
284.946
279.086
273.566
0.414779
0.246002
0.20532
0.194622
0.194667
0.199903
0.20813
0.218313
0.229928
0.242713
0.256565
0.271478
0.287526
0.304838
0.323576
0.343908
0.365979
0.389917
0.415829
0.44382
0.473994
0.506459
0.541336
0.578757
0.618869
0.661837
0.707846
0.757105
0.809849
0.866343
0.926881
0.991792
1.06143
1.1362
1.21652
1.30287
1.39575
1.49574
1.60342
1.71949
1.84466
1.97974
2.12559
2.28318
2.45355
2.63788
2.83743
3.05363
3.28804
3.54239
3.81858
4.11874
4.44523
4.80066
5.18791
5.61016
6.07086
6.57368
7.12269
7.72239
8.37768
9.09393
9.87693
10.733
11.6689
12.6921
13.8103
15.031
16.3611
17.8093
19.3843
21.0954
22.9516
24.9622
27.1366
29.4843
32.0145
34.7372
37.6631
40.8064
44.1591
47.7286
51.5232
55.5489
59.8108
64.3124
69.0566
74.0451
79.2788
84.7578
90.4819
96.4501
102.661
109.112
115.8
122.72
129.862
137.216
144.777
152.54
160.497
168.64
176.959
185.442
194.079
202.858
211.769
220.804
229.958
239.221
248.577
258.011
267.505
277.05
286.62
296.187
305.643
314.974
324.156
333.173
342.011
350.656
359.093
367.31
375.293
383.029
390.509
397.722
404.655
411.293
417.622
423.631
429.308
434.642
439.622
444.238
448.482
452.343
455.814
458.885
461.549
463.798
465.623
467.017
467.972
468.481
468.537
468.132
467.262
465.922
464.107
461.818
459.053
455.814
452.104
447.928
443.296
438.218
432.712
426.795
420.492
413.827
406.833
399.545
392
384.242
376.317
368.273
360.156
352.011
343.89
335.841
327.914
320.156
312.61
305.316
298.306
291.615
285.231
279.227
0.435141
0.256515
0.212939
0.201101
0.200519
0.205327
0.213206
0.223061
0.234332
0.246734
0.260143
0.274548
0.290037
0.306775
0.324962
0.344771
0.366331
0.389743
0.415094
0.442472
0.471969
0.50369
0.537749
0.574271
0.613401
0.655301
0.700158
0.748185
0.799626
0.854765
0.91392
0.97745
1.04575
1.11926
1.19846
1.28388
1.37612
1.47581
1.58367
1.7005
1.82717
1.96467
2.11408
2.2766
2.45357
2.64649
2.85705
3.08713
3.33884
3.61452
3.91675
4.24848
4.61304
5.01417
5.45607
5.94349
6.4816
7.07548
7.73086
8.45433
9.25308
10.1348
11.1079
12.1812
13.3643
14.668
16.1049
17.6839
19.4095
21.2941
23.3485
25.583
28.0076
30.6317
33.4643
36.5139
39.7887
43.2964
47.0441
51.038
55.2776
59.7653
64.5037
69.4949
74.7399
80.2382
85.9882
91.9873
98.232
104.719
111.444
118.404
125.595
133.012
140.646
148.491
156.536
164.772
173.191
181.789
190.562
199.497
208.583
217.806
227.153
236.612
246.172
255.823
265.572
275.406
285.3
295.225
305.154
315.07
324.87
334.488
343.931
353.2
362.287
371.183
379.876
388.355
396.607
404.621
412.383
419.882
427.106
434.044
440.684
447.012
453.015
458.683
464.003
468.964
473.556
477.767
481.588
485.01
488.023
490.617
492.784
494.515
495.802
496.636
497.01
496.916
496.346
495.295
493.757
491.726
489.201
486.181
482.666
478.659
474.165
469.192
463.75
457.855
451.524
444.78
437.647
430.157
422.343
414.241
405.894
397.346
388.644
379.837
370.974
362.105
353.281
344.553
335.971
327.583
319.433
311.564
304.008
296.797
289.92
283.461
0.458198
0.267094
0.220567
0.207773
0.206781
0.211397
0.219176
0.228958
0.240142
0.252407
0.265598
0.27968
0.294764