/*--------------------------------*- C++ -*----------------------------------*\
| =========                 |                                                 |
| \\      /  F ield         | OpenFOAM: The Open Source CFD Toolbox           |
|  \\    /   O peration     | Version:  1.4.2                                 |
|   \\  /    A nd           | Web:      http://www.openfoam.org               |
|    \\/     M anipulation  |                                                 |
\*---------------------------------------------------------------------------*/
FoamFile
{
    version     2.0;
    format      ascii;
    class       volScalarField;
    object      k;
    location    "850";
}
// * * * * * * * * * * * * * * * * * * * * * * * * * * * * * * * * * * * * * //

dimensions      [0 2 -2 0 0 0 0];

internalField   nonuniform List<scalar> 
12225
(
0.315115
0.271063
0.237885
0.212505
0.1929
0.17769
0.165905
0.156845
0.14999
0.144947
0.141411
0.139138
0.137933
0.137632
0.138097
0.139208
0.140862
0.143166
0.365357
0.357609
0.353827
0.353686
0.356737
0.362618
0.371004
0.3816
0.394137
0.408365
0.424048
0.440955
0.458865
0.477557
0.496817
0.516421
0.536066
0.556346
0.370187
0.364636
0.360183
0.356898
0.354768
0.35374
0.353744
0.354696
0.356513
0.359109
0.362405
0.366319
0.37077
0.37567
0.380923
0.386403
0.391922
0.397336
0.371735
0.367478
0.363488
0.359996
0.357015
0.354545
0.352574
0.351071
0.350002
0.349327
0.349007
0.349003
0.349274
0.34978
0.350476
0.351308
0.352215
0.353158
0.372438
0.36905
0.36559
0.362328
0.359334
0.35663
0.354215
0.352079
0.350207
0.348579
0.347176
0.345975
0.344956
0.344096
0.343369
0.342752
0.342221
0.341764
0.37275
0.369943
0.366992
0.364059
0.36125
0.35861
0.356154
0.353885
0.351797
0.349883
0.34813
0.346528
0.345062
0.343721
0.342491
0.341359
0.340313
0.339358
0.372878
0.37041
0.367854
0.365269
0.362722
0.360258
0.357903
0.355675
0.353577
0.351609
0.349766
0.348042
0.346429
0.34492
0.343506
0.34218
0.340936
0.339788
0.372918
0.370599
0.368258
0.365906
0.363576
0.361295
0.359086
0.356964
0.354939
0.353014
0.35119
0.349465
0.347835
0.346295
0.34484
0.343464
0.342164
0.340958
0.372932
0.370688
0.368473
0.366277
0.364109
0.361983
0.359911
0.357906
0.355975
0.354124
0.352355
0.35067
0.349065
0.34754
0.34609
0.344711
0.343402
0.342181
0.372937
0.37073
0.368595
0.36651
0.364471
0.362481
0.360543
0.358662
0.356843
0.35509
0.353406
0.351791
0.350245
0.348767
0.347355
0.346006
0.344721
0.343517
0.372937
0.370746
0.368652
0.366634
0.364684
0.362795
0.360966
0.359196
0.357485
0.355834
0.354244
0.352714
0.351245
0.349836
0.348484
0.347189
0.34595
0.344787
0.372936
0.370748
0.36867
0.366685
0.364785
0.36296
0.361206
0.359517
0.357891
0.356327
0.354821
0.353373
0.351981
0.350644
0.34936
0.348128
0.346948
0.345838
0.372936
0.370745
0.36867
0.366698
0.364819
0.363026
0.361312
0.359672
0.358101
0.356595
0.35515
0.353764
0.352435
0.351159
0.349934
0.348759
0.347635
0.346578
0.372937
0.370743
0.368665
0.366694
0.36482
0.363038
0.361341
0.359723
0.358178
0.356703
0.355293
0.353944
0.352654
0.351418
0.350234
0.3491
0.348017
0.347001
0.372939
0.370742
0.368662
0.366687
0.364813
0.363031
0.361337
0.359724
0.358188
0.356724
0.355328
0.353995
0.352722
0.351505
0.350342
0.349231
0.348171
0.347179
0.372943
0.370744
0.368661
0.366683
0.364805
0.363021
0.361325
0.359711
0.358175
0.356712
0.355317
0.353987
0.352719
0.351507
0.350351
0.349247
0.348197
0.347214
0.372948
0.370749
0.368663
0.366683
0.364802
0.363015
0.361315
0.359699
0.358159
0.356694
0.355297
0.353965
0.352695
0.351483
0.350326
0.349222
0.348172
0.347191
0.372951
0.370752
0.368664
0.366683
0.3648
0.363011
0.361309
0.35969
0.358148
0.356679
0.355279
0.353944
0.352671
0.351455
0.350295
0.349188
0.348135
0.347151
0.372947
0.370748
0.368661
0.366679
0.364796
0.363006
0.361303
0.359681
0.358136
0.356663
0.355259
0.353918
0.352638
0.351416
0.350249
0.349134
0.348072
0.347079
0.372942
0.370743
0.368656
0.366675
0.36479
0.362997
0.361289
0.359661
0.358108
0.356624
0.355207
0.353852
0.352555
0.351315
0.350128
0.348992
0.347909
0.346894
0.372938
0.370738
0.368651
0.366666
0.364774
0.362969
0.361244
0.359594
0.358014
0.3565
0.355048
0.353654
0.352318
0.351034
0.349803
0.348622
0.347492
0.346432
0.372934
0.370732
0.368636
0.366632
0.364712
0.362869
0.361095
0.359387
0.357741
0.356155
0.354627
0.353155
0.351738
0.350374
0.349061
0.347801
0.346594
0.345459
0.372927
0.37071
0.36858
0.36652
0.364521
0.36258
0.360694
0.358864
0.357089
0.355371
0.353712
0.35211
0.350567
0.349082
0.347655
0.346286
0.344977
0.343749
0.37291
0.370639
0.368408
0.366204
0.36403
0.361894
0.359802
0.357765
0.355788
0.353878
0.352037
0.350268
0.348572
0.346948
0.345396
0.343914
0.342505
0.341187
0.372856
0.370429
0.367957
0.365456
0.362964
0.36051
0.358116
0.3558
0.353574
0.351443
0.34941
0.347475
0.345636
0.343891
0.342235
0.340667
0.339186
0.337808
0.372693
0.369884
0.366925
0.36392
0.360959
0.358089
0.355338
0.35272
0.350244
0.347909
0.345714
0.343653
0.34172
0.33991
0.338216
0.336631
0.335151
0.333789
0.37223
0.368599
0.364817
0.361096
0.357537
0.354185
0.351059
0.348165
0.345497
0.343047
0.340806
0.33876
0.336897
0.335202
0.333663
0.332268
0.331005
0.329876
0.370946
0.365685
0.36055
0.355801
0.35149
0.347644
0.344266
0.341333
0.338816
0.336679
0.334887
0.333407
0.332206
0.331256
0.330529
0.33
0.329646
0.329455
0.366354
0.35712
0.349251
0.3429
0.337988
0.334392
0.331962
0.330545
0.330001
0.330208
0.331059
0.332461
0.334335
0.33661
0.339225
0.342127
0.345262
0.348624
0.329178
0.293648
0.265348
0.242403
0.223549
0.20789
0.194768
0.183687
0.174271
0.166227
0.159326
0.153385
0.148254
0.143816
0.139969
0.136633
0.133739
0.131229
0.000366974
0.000436616
0.000539669
0.000651869
0.000760017
0.000859224
0.000948428
0.00102837
0.00110111
0.00116992
0.001239
0.0013129
0.00139719
0.00149251
0.00159881
0.00171708
0.0018489
0.00199579
0.00215716
0.00233125
0.00251754
0.00271828
0.00293806
0.00318424
0.00345929
0.00375652
0.00408081
0.00443504
0.00482127
0.00524106
0.00569573
0.0061864
0.00671409
0.00727976
0.00788439
0.00852903
0.00921476
0.00994277
0.0107143
0.0115309
0.0123939
0.0133049
0.0142657
0.0152781
0.0163441
0.0174656
0.018645
0.0198845
0.0211867
0.0225543
0.0239899
0.0254968
0.0270781
0.0287374
0.0304785
0.0323059
0.0342242
0.036239
0.0383567
0.0405847
0.0429322
0.04541
0.0480321
0.0508157
0.0537831
0.0569629
0.0603929
0.0641232
0.068221
0.0727772
0.0779164
0.0838115
0.0907041
0.0989376
0.109007
0.121636
0.137911
0.144539
0.151053
0.157757
0.164666
0.171782
0.179107
0.186641
0.194386
0.202341
0.210506
0.21888
0.22746
0.236246
0.245234
0.254422
0.263805
0.273381
0.283144
0.29309
0.303214
0.313509
0.32397
0.334589
0.345362
0.356278
0.367332
0.378513
0.389814
0.401224
0.412732
0.424327
0.435996
0.447724
0.459497
0.471298
0.483108
0.49491
0.506682
0.518404
0.530055
0.541612
0.553055
0.564365
0.575524
0.586518
0.597334
0.607969
0.618421
0.628705
0.638827
0.648689
0.658295
0.667648
0.676752
0.68561
0.694227
0.702607
0.710756
0.718678
0.726381
0.733868
0.741145
0.748217
0.755089
0.761763
0.768243
0.774529
0.780622
0.786518
0.792217
0.797713
0.803
0.808072
0.812919
0.817528
0.821888
0.825982
0.829791
0.833296
0.836477
0.83931
0.841769
0.843825
0.84545
0.846614
0.847284
0.847425
0.847004
0.845982
0.844328
0.842006
0.838984
0.835233
0.830762
0.825526
0.819616
0.813176
0.806097
0.797922
0.794333
0.790838
0.786345
0.764414
0.000460338
0.000683904
0.000945286
0.00118936
0.00140708
0.00160118
0.00177752
0.00194319
0.00210572
0.002273
0.00245314
0.00265254
0.00286904
0.00310409
0.00336059
0.00364242
0.00395486
0.00430557
0.00469314
0.00511711
0.00558274
0.00609291
0.0066495
0.00725419
0.00790831
0.00861309
0.00937025
0.0101816
0.0110489
0.0119739
0.0129583
0.0140036
0.0151117
0.0162842
0.017523
0.01883
0.0202074
0.0216576
0.0231831
0.0247864
0.0264707
0.0282388
0.0300941
0.0320401
0.0340804
0.036219
0.03846
0.0408077
0.0432667
0.0458419
0.0485384
0.0513617
0.0543175
0.0574118
0.0606512
0.0640425
0.0675931
0.0713111
0.0752051
0.0792847
0.0835605
0.0880444
0.0927498
0.0976919
0.102888
0.108358
0.114125
0.120216
0.126658
0.133485
0.140732
0.148432
0.156616
0.165296
0.17445
0.183982
0.19364
0.202871
0.212298
0.222028
0.232084
0.242474
0.253205
0.264282
0.275707
0.287483
0.299613
0.312099
0.32494
0.338137
0.35169
0.365596
0.379854
0.394461
0.409413
0.424706
0.440336
0.456295
0.472578
0.489179
0.506088
0.523298
0.540801
0.558585
0.57664
0.594955
0.613516
0.632309
0.651319
0.670528
0.689917
0.709463
0.729144
0.748934
0.768804
0.788723
0.80866
0.828582
0.848455
0.868246
0.887923
0.907458
0.926824
0.946001
0.964973
0.983732
1.00213
1.0202
1.03795
1.05538
1.07249
1.08929
1.1058
1.12201
1.13794
1.1536
1.169
1.18415
1.19907
1.21378
1.22828
1.24258
1.2567
1.27065
1.28443
1.29805
1.31151
1.32481
1.33794
1.35091
1.36369
1.37628
1.38866
1.40079
1.41265
1.42421
1.43541
1.44622
1.45659
1.46643
1.4757
1.4843
1.49217
1.4992
1.5053
1.51035
1.51424
1.51686
1.51806
1.51772
1.51575
1.512
1.50661
1.4995
1.49167
1.48487
1.47847
1.47021
1.45879
1.44066
0.000692724
0.00108365
0.00147903
0.00182711
0.00214044
0.00243044
0.00270713
0.00298089
0.0032624
0.00356294
0.00388354
0.004223
0.00458916
0.00498233
0.00540461
0.00586069
0.00635447
0.00688896
0.00746605
0.0080875
0.00875554
0.0094727
0.0102418
0.0110657
0.0119473
0.0128895
0.0138949
0.0149661
0.0161059
0.0173168
0.0186013
0.0199621
0.0214017
0.0229227
0.0245278
0.02622
0.0280024
0.0298783
0.0318511
0.0339246
0.0361027
0.0383896
0.0407898
0.0433079
0.0459489
0.0487179
0.0516206
0.0546626
0.0578502
0.0611898
0.0646881
0.0683524
0.0721901
0.0762093
0.0804183
0.084826
0.0894416
0.0942752
0.0993372
0.104639
0.110193
0.116011
0.122108
0.128499
0.1352
0.142227
0.1496
0.157337
0.165456
0.173975
0.182909
0.192267
0.202051
0.212251
0.222839
0.233772
0.244993
0.256478
0.268328
0.280581
0.293253
0.306354
0.319891
0.333871
0.348299
0.363179
0.378514
0.394308
0.410562
0.427276
0.44445
0.462084
0.480173
0.498716
0.517708
0.537143
0.557015
0.577317
0.59804
0.619175
0.640711
0.662638
0.684944
0.707614
0.730636
0.753994
0.777671
0.80165
0.825911
0.850433
0.875192
0.900162
0.925315
0.950619
0.976041
1.00154
1.02709
1.05263
1.07813
1.10355
1.12884
1.15396
1.17888
1.20356
1.22798
1.25208
1.27573
1.29896
1.32176
1.34414
1.36611
1.38767
1.40882
1.42957
1.44994
1.46995
1.4896
1.5089
1.52789
1.54656
1.56495
1.58306
1.60091
1.61851
1.63588
1.65301
1.66992
1.68661
1.70308
1.71932
1.73532
1.75107
1.76656
1.78174
1.7966
1.8111
1.82518
1.83881
1.85191
1.86443
1.87628
1.88739
1.89767
1.907
1.91528
1.9224
1.92822
1.93262
1.93545
1.93657
1.93586
1.93313
1.92819
1.92078
1.91158
1.9011
1.88947
1.87613
1.86051
1.84352
0.000975917
0.00155796
0.00209123
0.00256364
0.00300524
0.00342616
0.00383799
0.00425395
0.00468347
0.00511755
0.00556083
0.00602166
0.00650682
0.00702141
0.00756955
0.0081548
0.00878021
0.00944844
0.010162
0.0109235
0.0117358
0.012602
0.0135259
0.0145111
0.0155614
0.0166802
0.017871
0.0191373
0.0204823
0.0219094
0.023422
0.0250233
0.0267168
0.028506
0.0303945
0.0323862
0.0344852
0.0366956
0.039022
0.0414692
0.0440422
0.0467462
0.0495869
0.0525701
0.055702
0.0589892
0.0624384
0.066057
0.0698524
0.0738327
0.0780063
0.0823819
0.0869688
0.0917766
0.0968156
0.102096
0.10763
0.113428
0.119503
0.125867
0.132534
0.139518
0.146833
0.154495
0.162519
0.170921
0.179716
0.188921
0.198549
0.208613
0.219123
0.230086
0.241502
0.25337
0.265682
0.278428
0.291606
0.305227
0.319325
0.333919
0.349023
0.364647
0.380801
0.397492
0.414729
0.432515
0.450857
0.469757
0.489219
0.509243
0.529829
0.550975
0.57268
0.594938
0.617744
0.64109
0.664969
0.68937
0.714283
0.739694
0.76559
0.791956
0.818776
0.846033
0.873709
0.901784
0.930237
0.959047
0.988189
1.01764
1.04737
1.07735
1.10754
1.13792
1.16843
1.19905
1.22971
1.26038
1.291
1.32151
1.35187
1.38202
1.41192
1.44151
1.47076
1.4995
1.5277
1.55536
1.58247
1.60902
1.63502
1.66047
1.68537
1.70974
1.73358
1.75691
1.77973
1.80208
1.82395
1.84538
1.86638
1.88696
1.90715
1.92696
1.9464
1.96548
1.98422
2.00261
2.02067
2.03838
2.05574
2.07274
2.08937
2.10561
2.12141
2.13676
2.1516
2.16589
2.17958
2.19259
2.20485
2.21628
2.22678
2.23626
2.2446
2.25168
2.25736
2.26151
2.26395
2.26455
2.263
2.25903
2.25237
2.24314
2.23181
2.21873
2.20413
2.18813
2.17073
2.15339
0.00129529
0.00208744
0.00279698
0.00344153
0.00404539
0.00462036
0.00517945
0.00572834
0.0062611
0.00679047
0.00732729
0.00788077
0.00845841
0.00906625
0.00970906
0.0103907
0.0111146
0.0118839
0.0127018
0.0135715
0.0144966
0.015481
0.0165286
0.0176435
0.01883
0.0200919
0.0214334
0.0228583
0.0243705
0.0259742
0.0276732
0.0294717
0.0313739
0.0333841
0.0355069
0.037747
0.0401095
0.0425994
0.0452224
0.0479841
0.0508905
0.053948
0.0571633
0.0605433
0.0640954
0.0678272
0.0717467
0.0758626
0.0801835
0.0847189
0.0894785
0.0944724
0.0997114
0.105207
0.11097
0.117013
0.123348
0.12999
0.13695
0.144244
0.151886
0.159891
0.168274
0.17705
0.186236
0.195846
0.205897
0.216404
0.227379
0.238836
0.250786
0.263237
0.276195
0.289668
0.303658
0.318172
0.333221
0.34882
0.364989
0.381744
0.399099
0.417066
0.435655
0.454879
0.474744
0.495259
0.516431
0.538264
0.560762
0.583927
0.607759
0.632257
0.657419
0.683238
0.709708
0.73682
0.764565
0.792929
0.821898
0.851456
0.881587
0.91227
0.943487
0.975214
1.00743
1.04011
1.07323
1.10676
1.14068
1.17495
1.20954
1.24443
1.27956
1.3149
1.35041
1.38604
1.42173
1.45743
1.49306
1.52858
1.5639
1.59897
1.63371
1.66806
1.70195
1.73517
1.76771
1.79956
1.83072
1.86115
1.89088
1.91988
1.94817
1.97574
2.00261
2.02878
2.05427
2.07909
2.10326
2.12679
2.14972
2.17204
2.19379
2.21498
2.23562
2.25574
2.27534
2.29444
2.31303
2.33112
2.34872
2.36581
2.38239
2.39845
2.41396
2.42889
2.4432
2.45687
2.46984
2.48205
2.49344
2.50393
2.51344
2.52186
2.5291
2.53502
2.53949
2.54237
2.54343
2.54243
2.53902
2.53302
2.52442
2.51347
2.50045
2.48567
2.46941
2.45204
2.43378
2.41566
0.00164825
0.0026912
0.00361703
0.00445359
0.00522441
0.0059471
0.00662312
0.00725912
0.00787274
0.0084791
0.00909057
0.0097173
0.0103675
0.011048
0.0117642
0.0125207
0.0133215
0.0141705
0.0150715
0.0160283
0.017045
0.0181257
0.0192747
0.0204965
0.0217953
0.0231756
0.0246417
0.026198
0.0278489
0.029599
0.031453
0.0334155
0.0354915
0.0376861
0.0400046
0.0424527
0.045036
0.0477606
0.0506329
0.0536595
0.0568473
0.0602036
0.0637358
0.0674521
0.0713607
0.0754703
0.07979
0.0843295
0.0890986
0.094108
0.0993684
0.104891
0.110689
0.116773
0.123157
0.129855
0.13688
0.144246
0.151969
0.160063
0.168546
0.177431
0.186737
0.196479
0.206673
0.217337
0.228487
0.240138
0.252307
0.265006
0.278251
0.292053
0.306425
0.321379
0.336926
0.353081
0.369859
0.387276
0.405352
0.424103
0.443545
0.463692
0.484558
0.506157
0.528498
0.551593
0.575451
0.600077
0.625478
0.651657
0.678615
0.706351
0.734862
0.764143
0.794187
0.824982
0.856517
0.888776
0.921744
0.955399
0.989722
1.02469
1.06027
1.09645
1.13319
1.17047
1.20825
1.24651
1.28521
1.32431
1.36379
1.40359
1.44369
1.48404
1.52458
1.56526
1.60601
1.64678
1.68748
1.72804
1.76838
1.8084
1.84803
1.8872
1.92566
1.96333
2.00017
2.03616
2.07128
2.1055
2.13882
2.17122
2.20271
2.23328
2.26294
2.29168
2.31953
2.34648
2.37257
2.39779
2.42218
2.44575
2.46852
2.49052
2.51175
2.53224
2.55201
2.57106
2.58941
2.60707
2.62405
2.64034
2.65596
2.6709
2.68515
2.69868
2.71148
2.72352
2.73477
2.74519
2.75471
2.76329
2.77085
2.77731
2.78257
2.7865
2.78898
2.78977
2.78866
2.78536
2.77974
2.77175
2.76151
2.74917
2.73496
2.71914
2.702
2.68398
2.66525
2.64646
0.00201966
0.0033502
0.00451516
0.00554343
0.00646698
0.00729592
0.0080543
0.00876572
0.00944961
0.010122
0.0107961
0.0114832
0.0121922
0.0129308
0.0137054
0.0145213
0.0153834
0.0162963
0.0172641
0.0182914
0.0193825
0.0205417
0.0217737
0.0230829
0.024474
0.0259514
0.0275199
0.0291842
0.0309492
0.0328197
0.034801
0.0368984
0.0391172
0.0414634
0.0439428
0.0465616
0.0493264
0.0522438
0.055321
0.0585654
0.0619845
0.0655865
0.0693797
0.073373
0.0775755
0.0819969
0.0866472
0.091537
0.0966771
0.102079
0.107755
0.113718
0.11998
0.126555
0.133457
0.140701
0.148302
0.156276
0.164639
0.173407
0.182598
0.192228
0.202316
0.21288
0.223937
0.235505
0.247603
0.260248
0.273459
0.287252
0.301645
0.316655
0.332298
0.348592
0.365555
0.383204
0.401558
0.420639
0.440466
0.461059
0.482435
0.504614
0.527612
0.551444
0.576126
0.601671
0.628089
0.655391
0.683584
0.712672
0.742659
0.773545
0.805326
0.837999
0.871553
0.905979
0.941261
0.977382
1.01432
1.05206
1.09057
1.12982
1.16978
1.21042
1.25171
1.29362
1.3361
1.37912
1.42265
1.46664
1.51105
1.55584
1.60097
1.64638
1.69202
1.73783
1.78373
1.82965
1.87551
1.92121
1.96664
2.01171
2.0563
2.1003
2.14338
2.18552
2.22667
2.2668
2.30586
2.34383
2.3807
2.41644
2.45104
2.48449
2.51679
2.54795
2.57796
2.60683
2.63458
2.66121
2.68676
2.71122
2.73463
2.75701
2.77837
2.79874
2.81814
2.83658
2.85408
2.87067
2.88635
2.90115
2.91506
2.92812
2.94031
2.95163
2.96208
2.97164
2.98032
2.98809
2.9949
3.00073
3.00552
3.00921
3.01171
3.01287
3.01257
3.01058
3.00674
3.00092
2.99313
2.98336
2.9717
2.95827
2.94323
2.92683
2.90932
2.8911
2.8722
2.85305
0.00239597
0.0040319
0.00543528
0.00662767
0.0076595
0.00857746
0.00941487
0.0101973
0.0109455
0.0116767
0.0124053
0.0131435
0.0139014
0.0146877
0.0155095
0.0163732
0.0172844
0.0182482
0.0192695
0.0203532
0.0215038
0.0227261
0.0240246
0.0254041
0.0268692
0.0284247
0.0300753
0.0318262
0.0336823
0.0356489
0.0377316
0.0399361
0.0422682
0.0447343
0.0473407
0.0500942
0.0530019
0.056071
0.0593092
0.0627246
0.0663255
0.0701205
0.0741189
0.07833
0.0827639
0.0874309
0.092342
0.0975084
0.102942
0.108655
0.114661
0.120974
0.127606
0.134573
0.14189
0.149574
0.157639
0.166104
0.174986
0.184302
0.194072
0.204314
0.215048
0.226292
0.238069
0.250396
0.263296
0.276789
0.290894
0.305634
0.32103
0.337101
0.35387
0.371359
0.38959
0.408585
0.428369
0.448964
0.470395
0.492684
0.515853
0.539926
0.564921
0.590859
0.617759
0.645635
0.674504
0.704377
0.735264
0.767173
0.800108
0.83407
0.869058
0.905066
0.942085
0.980102
1.0191
1.05906
1.09997
1.14178
1.18447
1.22802
1.27238
1.31751
1.36338
1.40995
1.45717
1.505
1.5534
1.60233
1.65173
1.70156
1.75177
1.8023
1.8531
1.9041
1.95522
2.00637
2.05745
2.10836
2.15896
2.20915
2.25879
2.30757
2.35529
2.40192
2.44739
2.49165
2.53465
2.57636
2.61674
2.65577
2.69343
2.72971
2.76458
2.79805
2.8301
2.86075
2.89
2.91786
2.94434
2.96947
2.99325
3.01571
3.03687
3.05677
3.0754
3.09281
3.10901
3.12403
3.13789
3.15062
3.16224
3.17279
3.18227
3.1907
3.19809
3.20445
3.20982
3.21417
3.21751
3.21983
3.22107
3.22121
3.22016
3.21781
3.21406
3.20882
3.20202
3.19365
3.18371
3.17223
3.15927
3.14491
3.12929
3.1126
3.09504
3.07691
3.05812
3.03898
0.00275805
0.00469821
0.00629964
0.00761918
0.00875297
0.00975741
0.01067
0.0115186
0.0123257
0.0131097
0.0138864
0.0146688
0.0154681
0.0162939
0.0171544
0.0180565
0.0190068
0.0200109
0.0210743
0.0222022
0.0233994
0.0246708
0.0260212
0.0274552
0.0289776
0.0305931
0.0323068
0.0341235
0.0360487
0.0380878
0.0402466
0.042531
0.0449472
0.0475019
0.0502019
0.0530542
0.0560665
0.0592464
0.0626022
0.0661423
0.0698755
0.0738113
0.0779591
0.0823293
0.0869323
0.0917792
0.0968816
0.102252
0.107902
0.113845
0.120096
0.126669
0.133578
0.14084
0.14847
0.156487
0.164907
0.173748
0.18303
0.192773
0.202996
0.21372
0.224967
0.236758
0.249116
0.262064
0.275624
0.289822
0.304681
0.320225
0.33648
0.353472
0.371225
0.389768
0.409126
0.429328
0.450401
0.472374
0.495273
0.519127
0.543962
0.569804
0.59668
0.624611
0.65362
0.683728
0.714953
0.74731
0.780812
0.815468
0.851286
0.888268
0.926412
0.965714
1.00616
1.04775
1.09044
1.13424
1.17909
1.22498
1.27187
1.31972
1.36849
1.41813
1.46861
1.51986
1.57185
1.62451
1.67781
1.73169
1.78611
1.841
1.89632
1.952
2.00798
2.06419
2.12054
2.17694
2.23327
2.28941
2.34521
2.40052
2.45514
2.50866
2.56099
2.61206
2.66181
2.71016
2.75706
2.80246
2.84632
2.8886
2.92928
2.96832
3.0057
3.0414
3.07543
3.10776
3.1384
3.16737
3.19465
3.22028
3.24426
3.26661
3.28736
3.30653
3.32413
3.3402
3.35476
3.36785
3.3795
3.38974
3.39861
3.40616
3.4124
3.41738
3.42113
3.42369
3.4251
3.42537
3.42453
3.4226
3.41956
3.41541
3.41012
3.40369
3.39607
3.3873
3.37736
3.36629
3.35411
3.34085
3.32656
3.31131
3.29519
3.27834
3.26091
3.24309
3.22464
3.20589
0.00307973
0.00530347
0.00707155
0.00850645
0.00973236
0.0108149
0.0117953
0.0127035
0.0135634
0.0143944
0.0152132
0.0160339
0.0168684
0.0177271
0.0186189
0.0195518
0.0205328
0.0215682
0.0226638
0.0238253
0.0250576
0.0263657
0.0277544
0.0292283
0.0307921
0.0324506
0.0342086
0.0360713
0.038044
0.0401323
0.042342
0.0446794
0.0471508
0.0497631
0.0525234
0.0554392
0.0585181
0.0617685
0.0651987
0.0688177
0.0726348
0.0766596
0.0809023
0.0853736
0.0900845
0.0950466
0.100272
0.105774
0.111565
0.11766
0.124072
0.130818
0.137914
0.145375
0.15322
0.161466
0.170134
0.179241
0.18881
0.198861
0.209417
0.2205
0.232134
0.244343
0.257153
0.27059
0.28468
0.29945
0.314929
0.331145
0.348128
0.365908
0.384517
0.403985
0.424345
0.445629
0.46787
0.491101
0.515355
0.540664
0.56706
0.594574
0.623235
0.653072
0.684111
0.716376
0.749889
0.784669
0.820731
0.858088
0.896748
0.936715
0.977988
1.02056
1.06443
1.10957
1.15596
1.20357
1.25238
1.30236
1.35344
1.40561
1.45879
1.51296
1.56804
1.62398
1.68073
1.73823
1.79643
1.85525
1.91466
1.97459
2.03499
2.09578
2.15691
2.21829
2.27983
2.34142
2.40294
2.46425
2.52518
2.58556
2.64489
2.70301
2.75982
2.81521
2.86911
2.92144
2.97213
3.02112
3.06836
3.11381
3.15741
3.19914
3.23895
3.27681
3.31272
3.34665
3.37861
3.40858
3.43657
3.46259
3.48665
3.50877
3.52896
3.54724
3.56364
3.57816
3.59086
3.60176
3.61092
3.61836
3.62416
3.62834
3.63094
3.63203
3.63165
3.62989
3.62678
3.62238
3.61676
3.60996
3.60204
3.59307
3.58308
3.57216
3.56036
3.54776
3.53442
3.52039
3.50573
3.49049
3.47472
3.45847
3.4418
3.42481
3.40756
3.39014
3.37224
3.35419
0.00334991
0.00584529
0.00775576
0.0092861
0.0105886
0.0117369
0.012775
0.0137344
0.0146396
0.0155109
0.0163656
0.0172184
0.018082
0.0189674
0.0198842
0.020841
0.0218453
0.022904
0.0240233
0.0252089
0.026466
0.0277994
0.0292139
0.0307139
0.0323041
0.0339889
0.0357734
0.0376624
0.0396614
0.0417759
0.0440118
0.0463756
0.0488736
0.051513
0.054301
0.0572452
0.0603537
0.0636348
0.0670974
0.0707506
0.0746041
0.0786678
0.0829522
0.0874684
0.0922278
0.0972426
0.102525
0.108089
0.113949
0.120118
0.126612
0.133448
0.140642
0.148212
0.156177
0.164557
0.173371
0.182641
0.192389
0.20264
0.213416
0.224744
0.236649
0.24916
0.262304
0.276111
0.290612
0.305837
0.321819
0.338592
0.35619
0.374649
0.394005
0.414294
0.435554
0.457825
0.481143
0.505547
0.531076
0.557767
0.585657
0.614782
0.645175
0.676871
0.709899
0.744288
0.780063
0.817246
0.855854
0.895903
0.937402
0.980356
1.02476
1.07062
1.11791
1.16662
1.21672
1.26818
1.32096
1.37502
1.43032
1.48679
1.5444
1.60307
1.66274
1.72336
1.78484
1.84714
1.91017
1.97389
2.03821
2.1031
2.16847
2.23427
2.30042
2.36684
2.43343
2.50007
2.56661
2.63291
2.69878
2.7638
2.82759
2.89006
2.95108
3.01055
3.06837
3.12445
3.17872
3.2311
3.28154
3.32998
3.37636
3.42062
3.46272
3.50261
3.54028
3.5757
3.60885
3.63973
3.66832
3.69464
3.71867
3.74044
3.75997
3.77726
3.79231
3.80515
3.81583
3.82438
3.83084
3.83528
3.83775
3.83828
3.83694
3.8338
3.82895
3.82247
3.81444
3.80496
3.79415
3.78208
3.76892
3.75477
3.73977
3.72405
3.70774
3.69098
3.67388
3.65656
3.6391
3.62158
3.60405
3.58657
3.56917
3.55191
3.53479
3.5178
3.50058
3.48344
0.00358248
0.00632696
0.00835397
0.00995828
0.0113199
0.0125193
0.0136027
0.0146024
0.0155434
0.0164467
0.0173297
0.0182076
0.0190936
0.0199991
0.0209344
0.0219084
0.0229292
0.0240039
0.025139
0.0263401
0.0276125
0.0289606
0.0303891
0.0319021
0.033504
0.0351993
0.0369926
0.0388888
0.0408933
0.0430116
0.0452496
0.0476136
0.0501104
0.0527469
0.0555307
0.0584694
0.0615713
0.0648449
0.0682992
0.0719435
0.0757877
0.079842
0.0841171
0.0886245
0.0933758
0.0983836
0.103661
0.109222
0.11508
0.121252
0.127753
0.1346
0.141812
0.149407
0.157405
0.165828
0.174697
0.184035
0.193867
0.204219
0.215117
0.226591
0.238668
0.251381
0.264761
0.278841
0.293657
0.309245
0.325641
0.342886
0.361018
0.380078
0.40011
0.421156
0.443259
0.466465
0.490817
0.516361
0.543139
0.571195
0.600571
0.631307
0.663442
0.697013
0.732054
0.768598
0.806671
0.846299
0.887501
0.930291
0.974682
1.02068
1.06827
1.11747
1.16824
1.22057
1.27442
1.32976
1.38653
1.4447
1.50421
1.565
1.627
1.69015
1.75437
1.81959
1.88574
1.95273
2.0205
2.08897
2.15807
2.22774
2.29791
2.36851
2.43946
2.51069
2.58207
2.65346
2.72472
2.79568
2.86596
2.93508
3.00291
3.06929
3.13412
3.19726
3.25862
3.3181
3.3756
3.43105
3.48437
3.53551
3.5844
3.63095
3.6751
3.7168
3.75602
3.79274
3.82692
3.85854
3.88758
3.91405
3.93792
3.95922
3.97795
3.99412
4.0077
4.01873
4.02726
4.03331
4.03695
4.03822
4.03718
4.03389
4.02843
4.02088
4.01136
3.99996
3.98681
3.97205
3.95584
3.93833
3.91971
3.90017
3.8799
3.85911
3.83799
3.81674
3.79555
3.77456
3.75393
3.73375
3.71412
3.69509
3.67669
3.65894
3.64179
3.62517
3.60867
3.59258
0.00378153
0.00675219
0.00887145
0.0105287
0.011931
0.0131652
0.0142793
0.0153062
0.0162716
0.0171962
0.0180981
0.0189926
0.019893
0.0208111
0.0217576
0.0227418
0.023772
0.0248556
0.0259989
0.0272073
0.0284858
0.0298385
0.0312695
0.0327829
0.0343826
0.0360727
0.0378579
0.0397428
0.0417326
0.0438327
0.0460492
0.0483883
0.0508567
0.0534615
0.0562102
0.0591108
0.0621714
0.0654007
0.0688078
0.0724022
0.0761939
0.0801933
0.0844113
0.0888595
0.0935498
0.0984952
0.103709
0.109206
0.115
0.121109
0.127549
0.134338
0.141495
0.14904
0.156996
0.165385
0.17423
0.183557
0.193394
0.203769
0.214711
0.226253
0.238429
0.251272
0.26482
0.279112
0.294186
0.310084
0.32685
0.344528
0.363164
0.382807
0.403504
0.425306
0.448263
0.472426
0.497847
0.524577
0.552666
0.58216
0.613106
0.645548
0.679528
0.715086
0.75226
0.791083
0.831586
0.873791
0.917719
0.963383
1.01079
1.05995
1.11086
1.1635
1.21785
1.27389
1.33158
1.39085
1.45166
1.51395
1.57766
1.64273
1.70909
1.77664
1.84532
1.91503
1.98569
2.05722
2.12952
2.20253
2.27615
2.35032
2.42497
2.50003
2.57543
2.65108
2.72683
2.80252
2.87798
2.9529
3.02675
3.09936
3.17058
3.24027
3.3083
3.37455
3.4389
3.50123
3.56146
3.61949
3.67523
3.72863
3.77964
3.8281
3.87392
3.91708
3.95754
3.99525
4.03017
4.06228
4.09154
4.11792
4.14143
4.16205
4.17979
4.19464
4.2066
4.2157
4.22196
4.22541
4.22612
4.22412
4.21949
4.21231
4.20266
4.19064
4.17638
4.16002
4.14171
4.12163
4.09996
4.07694
4.05278
4.02773
4.00205
3.97601
3.94985
3.92385
3.89824
3.87326
3.84908
3.82588
3.80377
3.78284
3.76311
3.74459
3.7272
3.71082
3.695
3.68
0.0039526
0.00712813
0.00931706
0.0110073
0.0124316
0.0136831
0.0148116
0.0158508
0.0168267
0.0177604
0.0186699
0.0195704
0.0204755
0.0213972
0.0223465
0.023333
0.0243651
0.02545
0.0265936
0.027801
0.0290764
0.0304236
0.031846
0.0333472
0.0349309
0.0366009
0.0383614
0.0402168
0.0421723
0.0442331
0.0464053
0.048695
0.051109
0.0536544
0.0563388
0.0591702
0.0621567
0.0653072
0.0686309
0.0721373
0.0758366
0.0797392
0.0838563
0.0881996
0.0927815
0.0976151
0.102714
0.108094
0.11377
0.11976
0.126081
0.132753
0.139797
0.147234
0.155088
0.163384
0.172149
0.181411
0.1912
0.201549
0.212491
0.224063
0.236303
0.249252
0.262952
0.277447
0.292784
0.309009
0.326173
0.344328
0.363526
0.383822
0.405273
0.427937
0.45187
0.477132
0.503781
0.531876
0.561471
0.59262
0.625366
0.659753
0.695827
0.733628
0.773196
0.814563
0.857756
0.902797
0.949702
0.998481
1.04914
1.10167
1.15607
1.21232
1.27041
1.3303
1.39191
1.45518
1.52005
1.58645
1.65433
1.7236
1.79418
1.86598
1.93892
2.0129
2.08782
2.16359
2.24011
2.31728
2.39502
2.47325
2.5519
2.63089
2.71015
2.78966
2.86913
2.94838
3.02709
3.1048
3.18135
3.25658
3.33036
3.40253
3.47297
3.54155
3.60813
3.67261
3.73487
3.79481
3.85234
3.90737
3.95984
4.00961
4.0566
4.10075
4.142
4.1803
4.21558
4.24782
4.27696
4.30297
4.32583
4.34552
4.36204
4.37537
4.38553
4.39252
4.39636
4.39709
4.39475
4.38941
4.38114
4.37002
4.35616
4.33966
4.32068
4.29938
4.27595
4.25057
4.2235
4.19499
4.1653
4.13474
4.1036
4.07221
4.0409
4.00997
3.97974
3.9505
3.9225
3.89596
3.87105
3.84788
3.82651
3.80695
3.78909
3.7728
3.75759
3.74367
0.00410328
0.00746477
0.00970216
0.0114061
0.0128339
0.0140846
0.0152102
0.0162454
0.0172167
0.0181453
0.0190492
0.0199435
0.0208419
0.0217567
0.022699
0.0236788
0.0247043
0.0257821
0.0269177
0.028115
0.0293777
0.0307088
0.0321111
0.0335877
0.0351417
0.0367765
0.038496
0.0403044
0.0422065
0.0442075
0.0463134
0.0485305
0.0508654
0.0533254
0.055918
0.0586513
0.0615336
0.0645738
0.0677812
0.0711655
0.074737
0.0785063
0.0824848
0.0866845
0.0911181
0.0957993
0.100743
0.105964
0.11148
0.117309
0.123471
0.129987
0.136879
0.144173
0.151895
0.160073
0.168736
0.177918
0.187652
0.197976
0.20893
0.220556
0.232898
0.246006
0.259928
0.274718
0.290429
0.307118
0.324839
0.343652
0.363619
0.384804
0.407271
0.431084
0.456309
0.48301
0.511254
0.541106
0.572629
0.605885
0.640892
0.67769
0.716325
0.756839
0.799265
0.84363
0.889955
0.938252
0.98853
1.04079
1.09502
1.15121
1.20935
1.26942
1.33138
1.39527
1.4609
1.52817
1.59704
1.66745
1.73932
1.81257
1.88711
1.96286
2.0397
2.11753
2.19626
2.27576
2.35594
2.43669
2.51792
2.59952
2.68143
2.76354
2.84577
2.92802
3.01007
3.0915
3.17196
3.25132
3.32946
3.40623
3.4815
3.55512
3.62696
3.69689
3.76478
3.8305
3.89393
3.95496
4.01348
4.06941
4.12263
4.17305
4.22057
4.2651
4.30657
4.3449
4.38004
4.41193
4.4405
4.46573
4.48756
4.50598
4.52096
4.5325
4.54058
4.54523
4.54644
4.54427
4.53875
4.52994
4.51793
4.50282
4.48471
4.46373
4.44005
4.41385
4.38535
4.35476
4.32236
4.28844
4.2533
4.21728
4.18073
4.14403
4.10754
4.07165
4.03672
4.0031
3.97112
3.94105
3.91311
3.88748
3.86424
3.84342
3.82492
3.80858
3.79392
3.78107
0.00424336
0.00777396
0.0100388
0.0117377
0.0131505
0.0143821
0.0154869
0.0165012
0.0174521
0.0183608
0.0192448
0.0201194
0.0209981
0.0218938
0.0228182
0.0237812
0.0247906
0.0258521
0.02697
0.0281474
0.0293868
0.0306904
0.0320606
0.0334996
0.03501
0.0365946
0.0382569
0.0400009
0.0418311
0.0437527
0.0457715
0.0478941
0.0501271
0.0524778
0.0549539
0.0575636
0.0603154
0.0632182
0.0662817
0.0695158
0.072931
0.0765384
0.0803498
0.0843777
0.0886354
0.0931376
0.0978999
0.102939
0.108275
0.113926
0.119916
0.126268
0.133009
0.140167
0.147774
0.155862