/*--------------------------------*- C++ -*----------------------------------*\
| =========                 |                                                 |
| \\      /  F ield         | OpenFOAM: The Open Source CFD Toolbox           |
|  \\    /   O peration     | Version:  1.4.2                                 |
|   \\  /    A nd           | Web:      http://www.openfoam.org               |
|    \\/     M anipulation  |                                                 |
\*---------------------------------------------------------------------------*/
FoamFile
{
    version     2.0;
    format      ascii;
    class       volScalarField;
    object      p;
    location    "850";
}
// * * * * * * * * * * * * * * * * * * * * * * * * * * * * * * * * * * * * * //

dimensions      [0 2 -2 0 0 0 0];

internalField   nonuniform List<scalar> 
12225
(
-3.38384
-4.22142
-4.47069
-4.56824
-4.67393
-4.77758
-4.86912
-4.9522
-5.03078
-5.10659
-5.18068
-5.25417
-5.32837
-5.40493
-5.48627
-5.57643
-5.68218
-5.83018
-3.55017
-4.22857
-4.46868
-4.56983
-4.67454
-4.77649
-4.86684
-4.94899
-5.02669
-5.10164
-5.17489
-5.24756
-5.32091
-5.39656
-5.47678
-5.56522
-5.668
-5.80097
-3.72921
-4.22452
-4.4579
-4.56752
-4.6724
-4.77292
-4.86258
-4.9444
-5.02175
-5.09629
-5.16908
-5.24116
-5.31372
-5.38817
-5.46633
-5.5506
-5.64319
-5.74571
-3.88636
-4.24209
-4.4608
-4.57479
-4.67812
-4.77615
-4.86446
-4.94552
-5.02225
-5.09618
-5.16833
-5.23963
-5.31112
-5.3839
-5.45917
-5.53808
-5.62031
-5.70287
-4.01618
-4.27347
-4.4714
-4.58596
-4.68689
-4.78206
-4.86855
-4.9484
-5.02409
-5.097
-5.16807
-5.23814
-5.30801
-5.37845
-5.45007
-5.52299
-5.5956
-5.66364
-4.12923
-4.31319
-4.48695
-4.59897
-4.69676
-4.78884
-4.87335
-4.95184
-5.02635
-5.09808
-5.16788
-5.23644
-5.30434
-5.37204
-5.43965
-5.50663
-5.57094
-5.62863
-4.22944
-4.35871
-4.50721
-4.61386
-4.70757
-4.79603
-4.87811
-4.9549
-5.02796
-5.09831
-5.16662
-5.2334
-5.29904
-5.36371
-5.42717
-5.48857
-5.54593
-5.59612
-4.30555
-4.4005
-4.52816
-4.62824
-4.71773
-4.80264
-4.8822
-4.95713
-5.02862
-5.09747
-5.16421
-5.22922
-5.2927
-5.35464
-5.41465
-5.47178
-5.52435
-5.56988
-4.36652
-4.43852
-4.54873
-4.64241
-4.72769
-4.80915
-4.8862
-4.95921
-5.02904
-5.09632
-5.16144
-5.22466
-5.28606
-5.34551
-5.40252
-5.45621
-5.50519
-5.54746
-4.42653
-4.48003
-4.57288
-4.65909
-4.73941
-4.81686
-4.89091
-4.96157
-5.02937
-5.09472
-5.15787
-5.21897
-5.27798
-5.33467
-5.38856
-5.43887
-5.48452
-5.52395
-4.48477
-4.52403
-4.6005
-4.67827
-4.75292
-4.82579
-4.89632
-4.96418
-5.02952
-5.09256
-5.15341
-5.21205
-5.2684
-5.32215
-5.37288
-5.41993
-5.46253
-5.49954
-4.54037
-4.56918
-4.63102
-4.69973
-4.76812
-4.83593
-4.90242
-4.96698
-5.02944
-5.08978
-5.14795
-5.20386
-5.25731
-5.30802
-5.35561
-5.39959
-5.43944
-5.47436
-4.59251
-4.61391
-4.66336
-4.72294
-4.78469
-4.84707
-4.90908
-4.96989
-5.02904
-5.0863
-5.14148
-5.19439
-5.24479
-5.29242
-5.33696
-5.37809
-5.41545
-5.44856
-4.64018
-4.65644
-4.69591
-4.74687
-4.80193
-4.8587
-4.91595
-4.97265
-5.02815
-5.08202
-5.13396
-5.18369
-5.23097
-5.27555
-5.3172
-5.35569
-5.39084
-5.42231
-4.68198
-4.69473
-4.72655
-4.76993
-4.81863
-4.86992
-4.92235
-4.9748
-5.02646
-5.07678
-5.12534
-5.17185
-5.21603
-5.25768
-5.29661
-5.33271
-5.36586
-5.39587
-4.71587
-4.72628
-4.75259
-4.78986
-4.833
-4.87932
-4.92723
-4.97558
-5.02346
-5.07026
-5.11552
-5.15889
-5.20012
-5.23904
-5.27551
-5.30946
-5.34081
-5.3695
-4.73885
-4.74783
-4.77059
-4.80357
-4.84251
-4.88484
-4.92898
-4.97377
-5.01831
-5.06194
-5.1042
-5.14474
-5.18334
-5.21985
-5.25416
-5.28624
-5.31605
-5.34356
-4.74587
-4.75434
-4.77579
-4.80696
-4.84383
-4.88396
-4.92584
-4.96832
-5.01056
-5.05193
-5.09198
-5.13041
-5.16703
-5.2017
-5.23437
-5.265
-5.29358
-5.32011
-4.73635
-4.74527
-4.76771
-4.79969
-4.83689
-4.87688
-4.91825
-4.95997
-5.00123
-5.04147
-5.08033
-5.11755
-5.15297
-5.1865
-5.21811
-5.2478
-5.27557
-5.30142
-4.71427
-4.72463
-4.75022
-4.78526
-4.82464
-4.86605
-4.90827
-4.95036
-4.99162
-5.03162
-5.07004
-5.10671
-5.14153
-5.17444
-5.20544
-5.23457
-5.26182
-5.28722
-4.68214
-4.69532
-4.72647
-4.76655
-4.80949
-4.8534
-4.89734
-4.94054
-4.98243
-5.02269
-5.06114
-5.09768
-5.13226
-5.16487
-5.19554
-5.22432
-5.25125
-5.27633
-4.64117
-4.65928
-4.69897
-4.74583
-4.79326
-4.84031
-4.88651
-4.93121
-4.97404
-5.01485
-5.05359
-5.09023
-5.12478
-5.15729
-5.18779
-5.21637
-5.24306
-5.26789
-4.59157
-4.61811
-4.66998
-4.72493
-4.77723
-4.82776
-4.87644
-4.92278
-4.96666
-5.00813
-5.04726
-5.08412
-5.11877
-5.15128
-5.18173
-5.2102
-5.23673
-5.26134
-4.53274
-4.57341
-4.64162
-4.70521
-4.76228
-4.81631
-4.86746
-4.9154
-4.9603
-5.00244
-5.04199
-5.07911
-5.11391
-5.1465
-5.17696
-5.20538
-5.23179
-5.25618
-4.46341
-4.52705
-4.61584
-4.68761
-4.74891
-4.80629
-4.85973
-4.90908
-4.95485
-4.99757
-5.0375
-5.07487
-5.10984
-5.14254
-5.17308
-5.20153
-5.2279
-5.2521
-4.38179
-4.48133
-4.59409
-4.67245
-4.73715
-4.79756
-4.85302
-4.90351
-4.95
-4.99318
-5.03344
-5.07104
-5.10619
-5.13906
-5.16975
-5.19835
-5.2248
-5.24893
-4.28436
-4.43986
-4.57754
-4.6596
-4.72688
-4.79006
-4.84727
-4.89873
-4.94583
-4.98947
-5.03009
-5.06799
-5.10341
-5.13655
-5.16755
-5.19649
-5.22332
-5.24774
-4.15947
-4.40845
-4.56874
-4.64992
-4.71873
-4.78442
-4.84313
-4.89536
-4.94297
-4.987
-5.02791
-5.06604
-5.10166
-5.13502
-5.16629
-5.19564
-5.22303
-5.24825
-3.99849
-4.39765
-4.57585
-4.65097
-4.7194
-4.78648
-4.84586
-4.89828
-4.94595
-4.99003
-5.03098
-5.06913
-5.10479
-5.13821
-5.16964
-5.19935
-5.22756
-5.25473
-3.83559
-4.3811
-4.57584
-4.64827
-4.71728
-4.78571
-4.84586
-4.89867
-4.94664
-4.99099
-5.0322
-5.0706
-5.1065
-5.14018
-5.17191
-5.20208
-5.2312
-5.26332
-5.89035
-5.89029
-5.89026
-5.89028
-5.89036
-5.8905
-5.89068
-5.89091
-5.89118
-5.89147
-5.89179
-5.89212
-5.89246
-5.89282
-5.8932
-5.89361
-5.89404
-5.89451
-5.89502
-5.89558
-5.89619
-5.89686
-5.89758
-5.89837
-5.89925
-5.90022
-5.90129
-5.90248
-5.90379
-5.90526
-5.90689
-5.9087
-5.91073
-5.91299
-5.9155
-5.91828
-5.92137
-5.92476
-5.9285
-5.9326
-5.93707
-5.94194
-5.94723
-5.95294
-5.9591
-5.96572
-5.97282
-5.98042
-5.98852
-5.99715
-6.00631
-6.01602
-6.02629
-6.03715
-6.04859
-6.06063
-6.07329
-6.08657
-6.10049
-6.11504
-6.13025
-6.14612
-6.16264
-6.17983
-6.19768
-6.21618
-6.23534
-6.25513
-6.27556
-6.2966
-6.31824
-6.34047
-6.36326
-6.38662
-6.4106
-6.43538
-6.46103
-6.48703
-6.51299
-6.53904
-6.56515
-6.59129
-6.61737
-6.64332
-6.66903
-6.6944
-6.71932
-6.74366
-6.7673
-6.7901
-6.81191
-6.83259
-6.85198
-6.86991
-6.88623
-6.90076
-6.91332
-6.92374
-6.93182
-6.93737
-6.9402
-6.94011
-6.93689
-6.93034
-6.92023
-6.90635
-6.88845
-6.86631
-6.83968
-6.80833
-6.77199
-6.73041
-6.68332
-6.63047
-6.57161
-6.5065
-6.43489
-6.35657
-6.27135
-6.17905
-6.07952
-5.97264
-5.85832
-5.7365
-5.60713
-5.47016
-5.32558
-5.17342
-5.01376
-4.84664
-4.67212
-4.4902
-4.3009
-4.10422
-3.90013
-3.68859
-3.46954
-3.2429
-3.00854
-2.76634
-2.51616
-2.25781
-1.99111
-1.71586
-1.43184
-1.13882
-0.83657
-0.524904
-0.203621
0.127467
0.468504
0.8196
1.18082
1.55214
1.93348
2.32467
2.72545
3.13544
3.55416
3.98097
4.41515
4.8558
5.30187
5.75221
6.2055
6.66028
7.11499
7.56794
8.01734
8.46133
8.898
9.32531
9.74164
10.1456
10.5354
10.9115
11.2739
11.6162
11.9491
12.2462
-5.89043
-5.89038
-5.89035
-5.89038
-5.89046
-5.8906
-5.89077
-5.89098
-5.89122
-5.89146
-5.89172
-5.89199
-5.89228
-5.89259
-5.89291
-5.89325
-5.89362
-5.89403
-5.89448
-5.89497
-5.8955
-5.89609
-5.89673
-5.89744
-5.89821
-5.89908
-5.90004
-5.9011
-5.90229
-5.90362
-5.90511
-5.90678
-5.90865
-5.91075
-5.91309
-5.91569
-5.91858
-5.92178
-5.92531
-5.92918
-5.93343
-5.93805
-5.94308
-5.94853
-5.95441
-5.96074
-5.96754
-5.97482
-5.98259
-5.99087
-5.99967
-6.00901
-6.01891
-6.02936
-6.0404
-6.05203
-6.06425
-6.0771
-6.09057
-6.10468
-6.11944
-6.13486
-6.15094
-6.16769
-6.18512
-6.20323
-6.22201
-6.24148
-6.26162
-6.28244
-6.3039
-6.32601
-6.34872
-6.37199
-6.39575
-6.41985
-6.44408
-6.4687
-6.49388
-6.51931
-6.54487
-6.57048
-6.59607
-6.62154
-6.64679
-6.67173
-6.69624
-6.72019
-6.74347
-6.76594
-6.78746
-6.80788
-6.82705
-6.84481
-6.86099
-6.87542
-6.88794
-6.89836
-6.90649
-6.91216
-6.91515
-6.91529
-6.91236
-6.90616
-6.89647
-6.88308
-6.86575
-6.84426
-6.81837
-6.78783
-6.7524
-6.71181
-6.66581
-6.61414
-6.55654
-6.49278
-6.4226
-6.34579
-6.26214
-6.17147
-6.07362
-5.96847
-5.8559
-5.73587
-5.60831
-5.47313
-5.33028
-5.17984
-5.02188
-4.85647
-4.68363
-4.50341
-4.3158
-4.12083
-3.91846
-3.70867
-3.4914
-3.26655
-3.03405
-2.79376
-2.54554
-2.28923
-2.02463
-1.75156
-1.46981
-1.17914
-0.879349
-0.570223
-0.25157
0.0767981
0.415022
0.763215
1.12146
1.48976
1.868
2.25607
2.65371
3.06055
3.47615
3.89991
4.33109
4.76884
5.21218
5.65994
6.11087
6.56354
7.01644
7.46792
7.91622
8.35954
8.79594
9.22346
9.64066
10.0464
10.4387
10.8166
11.1807
11.5261
11.8671
12.1683
-5.89032
-5.89028
-5.89026
-5.89032
-5.89043
-5.89058
-5.89076
-5.89095
-5.89115
-5.89135
-5.89156
-5.89178
-5.89201
-5.89225
-5.89252
-5.89281
-5.89313
-5.89348
-5.89387
-5.8943
-5.89478
-5.89531
-5.89589
-5.89654
-5.89727
-5.89808
-5.89899
-5.90001
-5.90115
-5.90244
-5.90388
-5.9055
-5.90733
-5.90936
-5.91164
-5.91418
-5.91699
-5.9201
-5.92353
-5.92729
-5.93141
-5.9359
-5.94078
-5.94607
-5.95177
-5.95792
-5.96452
-5.97158
-5.97913
-5.98718
-5.99575
-6.00484
-6.01447
-6.02467
-6.03543
-6.04677
-6.05872
-6.07127
-6.08444
-6.09824
-6.11269
-6.12778
-6.14353
-6.15995
-6.17703
-6.19477
-6.21319
-6.23227
-6.252
-6.27239
-6.29341
-6.31506
-6.33731
-6.36014
-6.38351
-6.40734
-6.43149
-6.45595
-6.48074
-6.50575
-6.53089
-6.5561
-6.5813
-6.60638
-6.63127
-6.65585
-6.68001
-6.70364
-6.72661
-6.74879
-6.77004
-6.79021
-6.80915
-6.82671
-6.84272
-6.85701
-6.86941
-6.87975
-6.88784
-6.89349
-6.89652
-6.89674
-6.89393
-6.88791
-6.87845
-6.86535
-6.84837
-6.8273
-6.80189
-6.77191
-6.73711
-6.69723
-6.65203
-6.60123
-6.54459
-6.48186
-6.41279
-6.33715
-6.25475
-6.16538
-6.06889
-5.96513
-5.85402
-5.73549
-5.60944
-5.47572
-5.33435
-5.18542
-5.02899
-4.86512
-4.69385
-4.51522
-4.32924
-4.13593
-3.93527
-3.72723
-3.51176
-3.28878
-3.05821
-2.81993
-2.5738
-2.31967
-2.05736
-1.78667
-1.5074
-1.21933
-0.922265
-0.61598
-0.300288
0.0249958
0.360015
0.704876
1.05967
1.4244
1.79899
2.18331
2.57711
2.98006
3.39172
3.8115
4.2387
4.6725
5.11193
5.55585
6.00305
6.45214
6.90164
7.34994
7.79525
8.23585
8.6698
9.0954
9.51209
9.91853
10.3119
10.6914
11.0585
11.4078
11.7568
12.0522
-5.88992
-5.88993
-5.88996
-5.89005
-5.89019
-5.89034
-5.89051
-5.89067
-5.89085
-5.89103
-5.89122
-5.8914
-5.89159
-5.8918
-5.89202
-5.89226
-5.89254
-5.89284
-5.89319
-5.89358
-5.89402
-5.89451
-5.89507
-5.8957
-5.89641
-5.8972
-5.8981
-5.89912
-5.90027
-5.90156
-5.90301
-5.90464
-5.90647
-5.90852
-5.9108
-5.91333
-5.91614
-5.91924
-5.92265
-5.92639
-5.93048
-5.93493
-5.93977
-5.945
-5.95065
-5.95673
-5.96326
-5.97026
-5.97773
-5.9857
-5.99418
-6.00318
-6.01272
-6.02282
-6.03348
-6.04473
-6.05657
-6.06902
-6.08208
-6.09578
-6.11011
-6.12509
-6.14072
-6.15701
-6.17396
-6.19158
-6.20985
-6.22878
-6.24836
-6.26857
-6.2894
-6.31083
-6.33283
-6.35538
-6.37844
-6.40196
-6.42589
-6.45017
-6.47476
-6.49959
-6.52456
-6.54962
-6.57467
-6.59963
-6.62439
-6.64886
-6.67292
-6.69645
-6.71933
-6.74143
-6.76261
-6.78272
-6.80161
-6.81913
-6.83511
-6.84939
-6.8618
-6.87215
-6.88028
-6.88599
-6.8891
-6.88941
-6.88674
-6.88087
-6.8716
-6.85872
-6.842
-6.82122
-6.79616
-6.76656
-6.73219
-6.69278
-6.64809
-6.59786
-6.54182
-6.47973
-6.41134
-6.33642
-6.25475
-6.16614
-6.07044
-5.9675
-5.85723
-5.73956
-5.6143
-5.48134
-5.34079
-5.19271
-5.03717
-4.87422
-4.70392
-4.52629
-4.34137
-4.14916
-3.94966
-3.74283
-3.52864
-3.307
-3.07784
-2.84104
-2.59647
-2.34398
-2.08339
-1.81451
-1.53714
-1.25106
-0.956072
-0.651956
-0.338523
-0.0155894
0.316996
0.659338
1.01153
1.37358
1.74544
2.12696
2.51791
2.91795
3.32669
3.74354
4.16778
4.59864
5.03515
5.47619
5.92057
6.3669
6.8137
7.25937
7.70202
8.14023
8.57224
8.997
9.41356
9.82005
10.2144
10.5955
10.9648
11.3154
11.6662
11.9508
-5.88921
-5.88928
-5.8894
-5.88955
-5.88972
-5.88989
-5.89006
-5.89023
-5.8904
-5.89057
-5.89073
-5.89089
-5.89105
-5.89123
-5.89143
-5.89165
-5.8919
-5.89219
-5.89251
-5.89289
-5.89332
-5.89381
-5.89436
-5.895
-5.89571
-5.89653
-5.89745
-5.8985
-5.89968
-5.90101
-5.9025
-5.90418
-5.90606
-5.90815
-5.91048
-5.91306
-5.91591
-5.91905
-5.92249
-5.92626
-5.93037
-5.93485
-5.93969
-5.94493
-5.95058
-5.95666
-5.96318
-5.97016
-5.9776
-5.98554
-5.99398
-6.00295
-6.01244
-6.02249
-6.03309
-6.04428
-6.05605
-6.06842
-6.08141
-6.09502
-6.10927
-6.12415
-6.13969
-6.15588
-6.17272
-6.19023
-6.20838
-6.22719
-6.24664
-6.26671
-6.28741
-6.3087
-6.33056
-6.35296
-6.37587
-6.39925
-6.42305
-6.44722
-6.4717
-6.49642
-6.52131
-6.54629
-6.57127
-6.59616
-6.62087
-6.64529
-6.66932
-6.69282
-6.71568
-6.73776
-6.75893
-6.77904
-6.79794
-6.81548
-6.83148
-6.8458
-6.85825
-6.86867
-6.87687
-6.88267
-6.88588
-6.88632
-6.8838
-6.8781
-6.86903
-6.85638
-6.83992
-6.81943
-6.79469
-6.76545
-6.73146
-6.69248
-6.64824
-6.59849
-6.54295
-6.48139
-6.41353
-6.33916
-6.25805
-6.17001
-6.07487
-5.97251
-5.86283
-5.74571
-5.6209
-5.48837
-5.34833
-5.2008
-5.04585
-4.88354
-4.71392
-4.53703
-4.35289
-4.16152
-3.96291
-3.75704
-3.54386
-3.32331
-3.0953
-2.85972
-2.61645
-2.36532
-2.10617
-1.83881
-1.56303
-1.27861
-0.985348
-0.683027
-0.371455
-0.0504469
0.28016
0.620472
0.970583
1.33053
1.70026
2.07963
2.46841
2.86628
3.27287
3.68759
4.10971
4.53853
4.97305
5.41214
5.85466
6.29914
6.74416
7.18813
7.62928
8.06678
8.499
8.92403
9.3409
9.7479
10.1432
10.5255
10.8957
11.2459
11.5959
11.8699
-5.88823
-5.88838
-5.8886
-5.88883
-5.88905
-5.88925
-5.88945
-5.88964
-5.88981
-5.88996
-5.89012
-5.89027
-5.89043
-5.89061
-5.8908
-5.89102
-5.89127
-5.89156
-5.89189
-5.89228
-5.89272
-5.89322
-5.8938
-5.89446
-5.89522
-5.89607
-5.89704
-5.89814
-5.89938
-5.90077
-5.90234
-5.90409
-5.90604
-5.90821
-5.91061
-5.91327
-5.91619
-5.9194
-5.92292
-5.92675
-5.93092
-5.93545
-5.94034
-5.94563
-5.95131
-5.95742
-5.96396
-5.97095
-5.97841
-5.98635
-5.99479
-6.00374
-6.01322
-6.02325
-6.03383
-6.04499
-6.05673
-6.06906
-6.08201
-6.09558
-6.10977
-6.12461
-6.14009
-6.15623
-6.17301
-6.19045
-6.20855
-6.22729
-6.24668
-6.26669
-6.28732
-6.30854
-6.33034
-6.35269
-6.37555
-6.39888
-6.42263
-6.44677
-6.47122
-6.49591
-6.52079
-6.54576
-6.57074
-6.59564
-6.62037
-6.64481
-6.66885
-6.69238
-6.71528
-6.7374
-6.75861
-6.77877
-6.79772
-6.81531
-6.83138
-6.84576
-6.85828
-6.86878
-6.87706
-6.88296
-6.88629
-6.88685
-6.88447
-6.87893
-6.87004
-6.85759
-6.84135
-6.82112
-6.79665
-6.76772
-6.73406
-6.69543
-6.65157
-6.6022
-6.54708
-6.48592
-6.41848
-6.34452
-6.26381
-6.17616
-6.08141
-5.97943
-5.87014
-5.75326
-5.62859
-5.4963
-5.35655
-5.20935
-5.05479
-4.89292
-4.72379
-4.54745
-4.36392
-4.17322
-3.97535
-3.77027
-3.55796
-3.33834
-3.11133
-2.87683
-2.6347
-2.38479
-2.12693
-1.86093
-1.58657
-1.30364
-1.01192
-0.711192
-0.401269
-0.0819574
0.246912
0.585455
0.933771
1.29192
1.65983
2.03739
2.42437
2.82045
3.22529
3.63832
4.05874
4.48599
4.91898
5.35657
5.79767
6.24072
6.68452
7.12768
7.56887
8.00676
8.43934
8.86495
9.2825
9.69026
10.0865
10.4696
10.8401
11.1892
11.5382
11.8033
-5.88705
-5.88731
-5.88764
-5.88796
-5.88824
-5.8885
-5.88872
-5.88893
-5.88911
-5.88929
-5.88946
-5.88963
-5.8898
-5.88999
-5.8902
-5.89044
-5.89071
-5.89102
-5.89137
-5.89178
-5.89225
-5.89279
-5.89341
-5.89411
-5.89491
-5.89583
-5.89686
-5.89803
-5.89934
-5.90082
-5.90247
-5.90431
-5.90635
-5.90862
-5.91112
-5.91387
-5.91689
-5.92019
-5.92379
-5.92771
-5.93196
-5.93656
-5.94153
-5.94687
-5.95262
-5.95877
-5.96536
-5.97239
-5.97988
-5.98784
-5.99631
-6.00528
-6.01477
-6.0248
-6.03539
-6.04655
-6.05828
-6.07061
-6.08355
-6.09711
-6.11129
-6.12611
-6.14158
-6.1577
-6.17448
-6.1919
-6.20999
-6.22872
-6.2481
-6.26811
-6.28873
-6.30996
-6.33177
-6.35412
-6.377
-6.40035
-6.42413
-6.44829
-6.47278
-6.49751
-6.52244
-6.54746
-6.5725
-6.59747
-6.62226
-6.64678
-6.6709
-6.69451
-6.71748
-6.73968
-6.76097
-6.78121
-6.80024
-6.81792
-6.83407
-6.84853
-6.86114
-6.87172
-6.8801
-6.8861
-6.88953
-6.89022
-6.88796
-6.88256
-6.87383
-6.86155
-6.84552
-6.8255
-6.80127
-6.77259
-6.73921
-6.70087
-6.65731
-6.60826
-6.55345
-6.49261
-6.42547
-6.3518
-6.27136
-6.18397
-6.08945
-5.98771
-5.87858
-5.76165
-5.63691
-5.5047
-5.36506
-5.21804
-5.06372
-4.90214
-4.73337
-4.55746
-4.37442
-4.18426
-3.987
-3.78261
-3.57105
-3.35226
-3.12615
-2.89262
-2.65153
-2.40272
-2.14603
-1.88126
-1.6082
-1.32661
-1.03627
-0.736984
-0.428531
-0.110723
0.216618
0.553613
0.900374
1.25697
1.62335
1.99941
2.38487
2.77947
3.18292
3.59461
4.01365
4.43967
4.87147
5.30782
5.74792
6.19007
6.63363
7.07714
7.51856
7.95679
8.38992
8.81631
9.23469
9.6433
10.0404
10.424
10.7946
11.1426
11.4907
11.7484
-5.88581
-5.88616
-5.88661
-5.88703
-5.88737
-5.88768
-5.88794
-5.88818
-5.8884
-5.88861
-5.88881
-5.88901
-5.88922
-5.88944
-5.88968
-5.88995
-5.89025
-5.89059
-5.89098
-5.89142
-5.89193
-5.89251
-5.89318
-5.89394
-5.8948
-5.89578
-5.89689
-5.89813
-5.89954
-5.9011
-5.90285
-5.90479
-5.90694
-5.90931
-5.91191
-5.91477
-5.91789
-5.92129
-5.92499
-5.92901
-5.93335
-5.93803
-5.94308
-5.9485
-5.95431
-5.96053
-5.96717
-5.97426
-5.9818
-5.98981
-5.99831
-6.00732
-6.01684
-6.0269
-6.03751
-6.04869
-6.06045
-6.0728
-6.08575
-6.09933
-6.11353
-6.12837
-6.14386
-6.16
-6.1768
-6.19426
-6.21237
-6.23114
-6.25055
-6.27061
-6.29128
-6.31256
-6.33443
-6.35685
-6.37979
-6.40321
-6.42708
-6.45132
-6.47589
-6.50073
-6.52575
-6.55087
-6.57602
-6.6011
-6.626
-6.65062
-6.67486
-6.69858
-6.72166
-6.74397
-6.76537
-6.78571
-6.80484
-6.82261
-6.83886
-6.85341
-6.86611
-6.87678
-6.88525
-6.89134
-6.89486
-6.89565
-6.8935
-6.88823
-6.87963
-6.86751
-6.85163
-6.8318
-6.80777
-6.7793
-6.74614
-6.70804
-6.66473
-6.61593
-6.56136
-6.50074
-6.43382
-6.36034
-6.28006
-6.19281
-6.09841
-5.99678
-5.8875
-5.77025
-5.64538
-5.51312
-5.37349
-5.22654
-5.07234
-4.91097
-4.74247
-4.5669
-4.38426
-4.19458
-3.99787
-3.79409
-3.58322
-3.36518
-3.1399
-2.90725
-2.66712
-2.41934
-2.16373
-1.90009
-1.62821
-1.34784
-1.05877
-0.760759
-0.453611
-0.137126
0.188886
0.524548
0.869988
1.2253
1.59044
1.96528
2.34953
2.74297
3.1454
3.55609
3.97402
4.39917
4.83023
5.26577
5.70565
6.14809
6.59175
7.03552
7.47743
7.91623
8.35014
8.77744
9.19673
9.60619
10.0041
10.3881
10.7586
11.1055
11.453
11.7046
-5.88461
-5.88503
-5.88559
-5.88609
-5.88651
-5.88687
-5.88719
-5.88748
-5.88775
-5.888
-5.88825
-5.88849
-5.88874
-5.889
-5.88927
-5.88958
-5.88991
-5.89029
-5.89071
-5.8912
-5.89175
-5.89238
-5.8931
-5.89392
-5.89485
-5.8959
-5.89709
-5.89842
-5.89991
-5.90157
-5.90342
-5.90546
-5.90771
-5.91019
-5.9129
-5.91586
-5.91909
-5.9226
-5.9264
-5.93051
-5.93495
-5.93972
-5.94485
-5.95035
-5.95624
-5.96253
-5.96924
-5.97639
-5.98399
-5.99206
-6.00061
-6.00966
-6.01923
-6.02934
-6.03999
-6.05121
-6.063
-6.07539
-6.08839
-6.102
-6.11625
-6.13114
-6.14667
-6.16287
-6.17972
-6.19724
-6.21542
-6.23426
-6.25375
-6.27388
-6.29465
-6.31602
-6.33799
-6.36051
-6.38357
-6.40711
-6.43109
-6.45546
-6.48016
-6.50512
-6.53028
-6.55554
-6.58083
-6.60604
-6.63108
-6.65585
-6.68022
-6.70407
-6.72728
-6.74971
-6.77122
-6.79167
-6.81091
-6.82877
-6.84511
-6.85975
-6.87252
-6.88327
-6.89181
-6.89797
-6.90157
-6.90243
-6.90037
-6.89519
-6.8867
-6.87469
-6.85895
-6.83926
-6.81538
-6.78709
-6.75412
-6.71621
-6.67308
-6.62447
-6.57007
-6.50962
-6.44283
-6.36945
-6.28925
-6.20203
-6.10767
-6.00592
-5.89616
-5.77847
-5.65343
-5.52104
-5.38134
-5.2344
-5.08029
-4.91907
-4.7508
-4.57552
-4.39325
-4.20402
-4.00781
-3.80462
-3.5944
-3.37709
-3.15259
-2.92081
-2.68159
-2.43478
-2.1802
-1.91763
-1.64686
-1.36761
-1.07967
-0.782824
-0.476839
-0.161516
0.163344
0.497858
0.842194
1.1965
1.56068
1.9346
2.31789
2.71046
3.11227
3.52235
3.93951
4.36417
4.79534
5.23103
5.67097
6.11378
6.55794
7.00227
7.44497
7.88461
8.31948
8.74783
9.16809
9.57843
9.97701
10.3614
10.7318
11.0778
11.4249
11.6714
-5.88354
-5.88401
-5.88467
-5.88526
-5.88575
-5.88618
-5.88656
-5.8869
-5.88722
-5.88752
-5.88781
-5.8881
-5.88838
-5.88868
-5.889
-5.88933
-5.8897
-5.89011
-5.89057
-5.8911
-5.89169
-5.89237
-5.89315
-5.89403
-5.89502
-5.89615
-5.89742
-5.89883
-5.90042
-5.90217
-5.90412
-5.90626
-5.90861
-5.91119
-5.91401
-5.91708
-5.92041
-5.92401
-5.92791
-5.93212
-5.93665
-5.94151
-5.94673
-5.95231
-5.95828
-5.96464
-5.97143
-5.97864
-5.9863
-5.99443
-6.00304
-6.01215
-6.02178
-6.03193
-6.04264
-6.05391
-6.06576
-6.07821
-6.09126
-6.10493
-6.11924
-6.1342
-6.1498
-6.16607
-6.18301
-6.20061
-6.21889
-6.23782
-6.25742
-6.27767
-6.29855
-6.32005
-6.34215
-6.36481
-6.388
-6.41169
-6.43582
-6.46035
-6.4852
-6.51033
-6.53564
-6.56106
-6.58651
-6.61188
-6.63707
-6.66198
-6.68649
-6.71048
-6.73381
-6.75636
-6.77799
-6.79854
-6.81786
-6.83581
-6.85221
-6.86691
-6.87974
-6.89053
-6.89911
-6.90531
-6.90895
-6.90985
-6.90784
-6.90272
-6.89429
-6.88236
-6.86671
-6.84713
-6.82337
-6.7952
-6.76237
-6.7246
-6.68162
-6.63314
-6.57886
-6.5185
-6.45177
-6.37842
-6.29821
-6.21099
-6.11655
-6.01418
-5.90368
-5.78568
-5.66041
-5.52785
-5.38807
-5.24112
-5.08707
-4.926
-4.75796
-4.58298
-4.40108
-4.21229
-4.01659
-3.81399
-3.60443
-3.38784
-3.16414
-2.93321
-2.6949
-2.44905
-2.19547
-1.93394
-1.66423
-1.38603
-1.09914
-0.803345
-0.498404
-0.18411
0.139742
0.47324
0.816648
1.17021
1.53373
1.90699
2.28956
2.68149
3.08296
3.49296
3.9103
4.33495
4.76626
5.20252
5.64302
6.08653
6.53158
6.97683
7.42061
7.86136
8.29739
8.72691
9.14822
9.55946
9.95873
10.3434
10.7137
11.0591
11.4057
11.6483
-5.88268
-5.88321
-5.88394
-5.88462
-5.88518
-5.88566
-5.88609
-5.88649
-5.88685
-5.8872
-5.88753
-5.88786
-5.88818
-5.88851
-5.88885
-5.88921
-5.88961
-5.89005
-5.89054
-5.8911
-5.89174
-5.89246
-5.89329
-5.89423
-5.89529
-5.89649
-5.89783
-5.89933
-5.901
-5.90285
-5.90488
-5.90712
-5.90957
-5.91225
-5.91516
-5.91833
-5.92175
-5.92546
-5.92945
-5.93374
-5.93836
-5.94331
-5.94861
-5.95427
-5.96031
-5.96675
-5.9736
-5.98088
-5.98861
-5.9968
-6.00547
-6.01464
-6.02433
-6.03455
-6.04532
-6.05665
-6.06856
-6.08107
-6.0942
-6.10795
-6.12233
-6.13737
-6.15306
-6.16943
-6.18646
-6.20417
-6.22256
-6.24162
-6.26134
-6.28172
-6.30274
-6.32439
-6.34664
-6.36945
-6.39281
-6.41666
-6.44096
-6.46566
-6.49069
-6.51598
-6.54146
-6.56705
-6.59265
-6.61818
-6.64352
-6.66857
-6.69321
-6.71732
-6.74077
-6.76341
-6.78512
-6.80573
-6.82511
-6.8431
-6.85953
-6.87425
-6.88708
-6.89787
-6.90644
-6.91263
-6.91626
-6.91716
-6.91514
-6.91002
-6.90162
-6.88972
-6.87412
-6.8546
-6.83092
-6.80283
-6.77009
-6.73242
-6.68953
-6.64113
-6.58692
-6.52659
-6.45986
-6.38647
-6.30621
-6.21888
-6.12385
-6.02051
-5.90941
-5.79112
-5.6656
-5.53289
-5.39303
-5.24609
-5.09214
-4.93124
-4.76346
-4.58882
-4.40733
-4.21901
-4.02386
-3.82188
-3.61301
-3.39718
-3.1743
-2.94425
-2.70686
-2.46198
-2.20941
-1.94893
-1.68029
-1.4031
-1.11717
-0.822356
-0.518374
-0.205005
0.117955
0.450549
0.793097
1.14601
1.50902
1.88187
2.26428
2.65611
3.0574
3.46747
3.88533
4.31056
4.74242
5.17959
5.6211
6.06571
6.51201
6.95855
7.40371
7.84585
8.28326
8.71411
9.1366
9.5488
9.94877
10.3339
10.7041
11.0489
11.3951
11.6345
-5.88211
-5.88268
-5.88347
-5.88421
-5.88483
-5.88536
-5.88584
-5.88628
-5.88669
-5.88707
-5.88743
-5.88778
-5.88813
-5.88847
-5.88883
-5.88921
-5.88962
-5.89007
-5.89059
-5.89118
-5.89185
-5.89262
-5.89349
-5.89449
-5.89562
-5.89688
-5.8983
-5.89987
-5.90162
-5.90355
-5.90567
-5.908
-5.91054
-5.9133
-5.91631
-5.91956
-5.92307
-5.92686
-5.93093
-5.93531
-5.94
-5.94503
-5.9504
-5.95613
-5.96224
-5.96875
-5.97567
-5.98301
-5.9908
-5.99906
-6.00779
-6.01702
-6.02677
-6.03705
-6.04789
-6.05929
-6.07127
-6.08386
-6.09706
-6.11089
-6.12536
-6.14049
-6.15628
-6.17275
-6.1899
-6.20773
-6.22624
-6.24544
-6.2653
-6.28583
-6.307
-6.3288
-6.35121
-6.37419
-6.39772
-6.42174
-6.44621
-6.47108
-6.49628
-6.52173
-6.54737
-6.57311
-6.59886
-6.62452
-6.64998
-6.67514
-6.69988
-6.72406
-6.74757
-6.77026
-6.79199
-6.81262
-6.83199
-6.84996
-6.86636
-6.88102
-6.89379
-6.9045
-6.913
-6.9191
-6.92265
-6.92348
-6.9214
-6.91623
-6.90779
-6.89587
-6.88027
-6.86076
-6.83711
-6.80907
-6.77638
-6.73876
-6.69592
-6.64756
-6.59337
-6.53302
-6.46623
-6.39276
-6.31238
-6.22448
-6.12822
-6.02395
-5.9125
-5.79394
-5.66822
-5.53539
-5.39551
-5.24863
-5.09484
-4.93418
-4.76671
-4.5925
-4.41148
-4.22368
-4.02914
-3.82784
-3.61972
-3.40471
-3.18271
-2.95357
-2.71716
-2.47328
-2.22174
-1.96234
-1.69482
-1.41869
-1.13376
-0.83994
-0.536918
-0.224448
0.0976968
0.429642
0.771587
1.12385
1.48637
1.85895
2.24139
2.63346
3.03499
3.44546
3.86407
4.29022
4.72308
5.16149
5.60438
6.05049
6.4984
6.94661
7.39349
7.83733
8.27639
8.70878
9.13261
9.54591
9.9467
10.3322
10.7025
11.0469
11.3925
11.6297
-5.88184
-5.88244
-5.88329
-5.88408
-5.88475
-5.88532
-5.88584
-5.8863
-5.88674
-5.88714
-5.88751
-5.88787
-5.88822
-5.88856
-5.88891
-5.88929
-5.8897
-5.89016
-5.89069
-5.8913
-5.892
-5.89281
-5.89373
-5.89477
-5.89595
-5.89728
-5.89876
-5.90041
-5.90223
-5.90424
-5.90644
-5.90884
-5.91146
-5.9143
-5.91738
-5.92071
-5.9243
-5.92816
-5.93231
-5.93676
-5.94152
-5.94661
-5.95204
-5.95784
-5.96401
-5.97057
-5.97755
-5.98495
-5.9928
-6.00111
-6.0099
-6.01919
-6.029
-6.03935
-6.05025
-6.06171
-6.07377
-6.08643
-6.09972
-6.11363
-6.1282
-6.14343
-6.15933
-6.17591
-6.19317
-6.21113
-6.22977
-6.2491
-6.26911
-6.28978
-6.31111
-6.33306
-6.35563
-6.37877
-6.40245
-6.42663
-6.45126
-6.47627
-6.50161
-6.5272
-6.55296
-6.57881
-6.60465
-6.63039
-6.65591
-6.68111
-6.70586
-6.73005
-6.75354
-6.77619
-6.79786
-6.81841
-6.83768
-6.85553
-6.8718
-6.88632
-6.89893
-6.90947
-6.91779
-6.92373
-6.92711
-6.92779
-6.92557
-6.92029
-6.91175
-6.89976
-6.8841
-6.86456
-6.8409
-6.81286
-6.78018
-6.74258
-6.69976
-6.6514
-6.59721
-6.53682
-6.46997
-6.39634
-6.31533
-6.22594
-6.1284
-6.02373
-5.91204
-5.79326
-5.66742
-5.53456
-5.39474
-5.24801
-5.09445
-4.93411
-4.76706
-4.59336
-4.41294
-4.22576
-4.03192
-3.8314
-3.62414
-3.41004
-3.18899
-2.96087
-2.7255
-2.48269
-2.23224
-1.97392
-1.70747
-1.43249
-1.14871
-0.855956
-0.553929
-0.242368
0.0789736
0.41029
0.751752
1.10356
1.46575
1.8382
2.22077
2.6132
3.01524
3.42638
3.84595
4.27327
4.70744
5.1474
5.59199
6.03995
6.48982
6.94005
7.38899
7.83487
8.27587
8.71007
9.1355
9.55011
9.95187
10.338
10.7084
11.0527
11.3975
11.6332
-5.88189
-5.88251
-5.88341
-5.88425
-5.88495
-5.88555
-5.88608
-5.88656
-5.887
-5.8874
-5.88776
-5.8881
-5.88842
-5.88874
-5.88907
-5.88942
-5.88982
-5.89027
-5.89081
-5.89143
-5.89216
-5.89299
-5.89395
-5.89504
-5.89627
-5.89766
-5.8992
-5.90091
-5.9028
-5.90487
-5.90714
-5.90961
-5.9123
-5.91521
-5.91836
-5.92175
-5.92541
-5.92933
-5.93353
-5.93804
-5.94285
-5.948
-5.95348
-5.95933
-5.96555
-5.97216
-5.97919
-5.98664
-5.99454
-6.0029
-6.01174
-6.02109
-6.03095
-6.04135
-6.05231
-6.06385
-6.07598
-6.08871
-6.10208
-6.11608
-6.13074
-6.14606
-6.16207
-6.17876
-6.19614
-6.21422
-6.23299
-6.25245
-6.27258
-6.29339
-6.31484
-6.33693
-6.35962
-6.38288
-6.40668
-6.43097
-6.4557
-6.4808
-6.50622
-6.53187
-6.55766
-6.58352
-6.60936
-6.63506
-6.66054
-6.68566
-6.71032
-6.73438
-6.75773
-6.78021
-6.80169
-6.82203
-6.84107
-6.85868
-6.8747
-6.88896
-6.90128
-6.91154
-6.91958
-6.92525
-6.92839
-6.92883
-6.9264
-6.92094
-6.91225
-6.90013
-6.88438
-6.86477
-6.84106
-6.813
-6.78031
-6.7427
-6.69988
-6.65153
-6.59735
-6.537
-6.46996
-6.39553
-6.31275
-6.22186
-6.1239
-6.01903
-5.90715
-5.78827
-5.66242
-5.52964
-5.38999
-5.24352
-5.0903
-4.93039
-4.76384
-4.5907
-4.41095
-4.22457
-4.03158
-3.83197
-3.62567
-3.41259
-3.19262
-2.96562
-2.73141
-2.48978
-2.24052
-1.98337
-1.71805
-1.44424
-1.16163
-0.869966
-0.568954
-0.258311
0.0622243
0.392878
0.733836
1.08526
1.44721
1.81963
2.20236
2.59521
2.99787
3.40984
3.83049
4.25912
4.69481
5.13651
5.58304
6.03309
6.4852
6.93775
7.38907
7.8373
8.28057
8.7169
9.14423
9.56044
9.96344
10.3504
10.7211
11.0655
11.4095
11.6446
-5.88228
-5.88292
-5.88387
-5.88475
-5.88547
-5.88607
-5.8866
-5.88706
-5.88747
-5.88783
-5.88815
-5.88844
-5.88871
-5.88898
-5.88925
-5.88957
-5.88994
-5.89038
-5.89091
-5.89154
-5.89228
-5.89314
-5.89413
-5.89526
-5.89654
-5.89797
-5.89957
-5.90133
-5.90328
-5.90542
-5.90775
-5.91028
-5.91303
-5.916
-5.9192
-5.92265
-5.92635
-5.93032
-5.93457
-5.93912
-5.94398
-5.94916
-5.95468
-5.96056
-5.96682
-5.97347
-5.98053
-5.98802
-5.99596
-6.00436
-6.01325
-6.02264
-6.03255
-6.04301
-6.05402
-6.06562
-6.07781
-6.09062
-6.10406
-6.11814
-6.13288
-6.14829
-6.16439
-6.18117
-6.19865
-6.21683
-6.2357
-6.25524
-6.27546
-6.29634
-6.31787
-6.34001
-6.36275
-6.38605
-6.40986
-6.43415
-6.45886
-6.48393
-6.5093
-6.53486
-6.56053
-6.58624
-6.61191
-6.63742
-6.66267
-6.68755
-6.71194
-6.73571
-6.75874
-6.78089
-6.80202
-6.82199
-6.84065
-6.85788
-6.87353
-6.88741
-6.89935
-6.90924
-6.91693
-6.92226
-6.92508
-6.92523
-6.92255
-6.91686
-6.90799
-6.89573
-6.87988
-6.8602
-6.83645
-6.80837
-6.77568
-6.73809
-6.69531
-6.64698
-6.59275
-6.53211
-6.46394
-6.38744
-6.30315
-6.21187
-6.11378
-6.00878
-5.89685
-5.778
-5.65228
-5.51972
-5.38037
-5.23429
-5.08155
-4.9222
-4.75628
-4.58383
-4.40487
-4.21939
-4.02737
-3.8288
-3.62359
-3.41167
-3.1929
-2.96713
-2.73418
-2.49384
-2.24587
-1.98999
-1.72592
-1.45334
-1.17194
-0.881412
-0.581455
-0.271768
0.0479257
0.377871
0.718275
1.0693
1.43102
1.8034
2.18631
2.57956
2.98284
3.39567
3.81743
4.2474
4.68466
5.12818
5.57675
6.02903
6.48352
6.93858
7.39248
7.84333
8.28915
8.72792
9.15748
9.57563
9.9802
10.3684
10.7397
11.0845
11.4277
11.6631
-5.88304
-5.88373
-5.88473
-5.88565
-5.88636
-5.88693
-5.88741
-5.88781
-5.88814
-5.88842
-5.88866
-5.88886
-5.88904
-5.88922
-5.88943
-5.88969
-5.89002
-5.89044
-5.89096
-5.89159
-5.89234
-5.89322
-5.89423
-5.8954
-5.89671
-5.89819
-5.89984
-5.90166
-5.90366
-5.90585
-5.90824
-5.91082
-5.91362
-5.91664
-5.91989
-5.92338
-5.92712
-5.93112
-5.9354
-5.93998
-5.94486
-5.95006
-5.95561
-5.96152
-5.9678
-5.97447
-5.98156
-5.98908
-5.99704
-6.00548
-6.01439
-6.02382
-6.03377
-6.04426
-6.05532
-6.06697
-6.07921
-6.09207
-6.10556
-6.11969
-6.13448
-6.14993
-6.16607
-6.18289
-6.2004
-6.21859
-6.23747
-6.257
-6.27718
-6.298
-6.31945
-6.34149
-6.3641
-6.38725
-6.41089
-6.43498
-6.45947
-6.48429