/*--------------------------------*- C++ -*----------------------------------*\
| =========                 |                                                 |
| \\      /  F ield         | OpenFOAM: The Open Source CFD Toolbox           |
|  \\    /   O peration     | Version:  1.4.2                                 |
|   \\  /    A nd           | Web:      http://www.openfoam.org               |
|    \\/     M anipulation  |                                                 |
\*---------------------------------------------------------------------------*/
FoamFile
{
    version     2.0;
    format      ascii;
    class       surfaceScalarField;
    object      phi;
    location    "850";
}
// * * * * * * * * * * * * * * * * * * * * * * * * * * * * * * * * * * * * * //

dimensions      [0 3 -1 0 0 0 0];

internalField   nonuniform List<scalar> 
24170
(
3.03918e-06
9.47103e-08
2.96659e-06
7.25932e-08
2.90197e-06
6.46226e-08
2.84073e-06
6.12338e-08
2.78296e-06
5.7768e-08
2.72889e-06
5.40693e-08
2.67845e-06
5.04469e-08
2.63147e-06
4.69797e-08
2.58781e-06
4.36609e-08
2.54732e-06
4.0483e-08
2.50988e-06
3.74412e-08
2.47536e-06
3.45252e-08
2.44364e-06
3.17139e-08
2.41467e-06
2.89684e-08
2.38846e-06
2.6212e-08
2.36519e-06
2.32678e-08
2.3454e-06
1.97914e-08
9.63633e-09
2.33576e-06
3.46199e-06
8.91626e-08
3.45386e-06
8.07243e-08
3.44441e-06
7.40688e-08
3.43379e-06
7.18618e-08
3.42224e-06
6.93188e-08
3.41016e-06
6.6145e-08
3.39778e-06
6.28218e-08
3.38525e-06
5.95099e-08
3.37269e-06
5.62228e-08
3.36021e-06
5.29633e-08
3.34792e-06
4.97336e-08
3.33592e-06
4.65223e-08
3.32434e-06
4.32963e-08
3.31332e-06
3.99855e-08
3.30308e-06
3.64446e-08
3.294e-06
3.23505e-08
3.28691e-06
2.68813e-08
1.73963e-08
3.27915e-06
3.82433e-06
7.70291e-08
3.8263e-06
7.87499e-08
3.8256e-06
7.47675e-08
3.82405e-06
7.34122e-08
3.82188e-06
7.14943e-08
3.81925e-06
6.87721e-08
3.81632e-06
6.57513e-08
3.81319e-06
6.26435e-08
3.80992e-06
5.94917e-08
3.80657e-06
5.63106e-08
3.8032e-06
5.31047e-08
3.79986e-06
4.98589e-08
3.79663e-06
4.65287e-08
3.79359e-06
4.30251e-08
3.79085e-06
3.91791e-08
3.78853e-06
3.46699e-08
3.7865e-06
2.89123e-08
2.08738e-08
3.78302e-06
4.2169e-06
6.46901e-08
4.22212e-06
7.35268e-08
4.2243e-06
7.25882e-08
4.22556e-06
7.2154e-08
4.22627e-06
7.07799e-08
4.22658e-06
6.84654e-08
4.22661e-06
6.57172e-08
4.22648e-06
6.27809e-08
4.22623e-06
5.97325e-08
4.22594e-06
5.66033e-08
4.22564e-06
5.34042e-08
4.22538e-06
5.0121e-08
4.2252e-06
4.67079e-08
4.22515e-06
4.30755e-08
4.22526e-06
3.90701e-08
4.22548e-06
3.44448e-08
4.22552e-06
2.88747e-08
2.20808e-08
4.22431e-06
4.6487e-06
5.33005e-08
4.65544e-06
6.67781e-08
4.65932e-06
6.87169e-08
4.66212e-06
6.93535e-08
4.66432e-06
6.85793e-08
4.66609e-06
6.66921e-08
4.66757e-06
6.42347e-08
4.66887e-06
6.14864e-08
4.67004e-06
5.85558e-08
4.67115e-06
5.54926e-08
4.67224e-06
5.23169e-08
4.67334e-06
4.90203e-08
4.67449e-06
4.55632e-08
4.67569e-06
4.18696e-08
4.67694e-06
3.7821e-08
4.67813e-06
3.3258e-08
4.67896e-06
2.80452e-08
2.22377e-08
4.6788e-06
5.12456e-06
4.33398e-08
5.132e-06
5.93347e-08
5.13708e-06
6.36401e-08
5.14108e-06
6.53498e-08
5.1444e-06
6.52579e-08
5.14723e-06
6.38653e-08
5.14971e-06
6.17489e-08
5.15197e-06
5.92273e-08
5.15408e-06
5.64467e-08
5.15609e-06
5.34801e-08
5.15805e-06
5.0361e-08
5.15998e-06
4.70908e-08
5.1619e-06
4.36425e-08
5.16381e-06
3.99613e-08
5.16566e-06
3.59702e-08
5.16733e-06
3.1587e-08
5.16858e-06
2.67932e-08
2.1766e-08
5.16905e-06
5.64939e-06
3.49598e-08
5.65697e-06
5.1752e-08
5.66284e-06
5.77702e-08
5.66778e-06
6.04054e-08
5.67206e-06
6.09828e-08
5.67581e-06
6.01161e-08
5.67917e-06
5.83888e-08
5.68225e-06
5.61462e-08
5.68513e-06
5.35644e-08
5.68787e-06
5.07396e-08
5.69051e-06
4.77214e-08
5.69307e-06
4.45263e-08
5.69557e-06
4.11447e-08
5.69799e-06
3.75478e-08
5.70026e-06
3.36988e-08
5.70227e-06
2.95744e-08
5.70384e-06
2.52191e-08
2.08319e-08
5.70478e-06
4.4112e-06
2.98669e-08
4.41651e-06
4.64461e-08
4.42103e-06
5.32512e-08
4.42498e-06
5.64542e-08
4.42851e-06
5.74567e-08
4.43168e-06
5.69451e-08
4.43456e-06
5.55015e-08
4.43723e-06
5.34767e-08
4.43974e-06
5.10616e-08
4.44211e-06
4.83658e-08
4.44438e-06
4.54502e-08
4.44656e-06
4.23423e-08
4.44866e-06
3.90462e-08
4.45066e-06
3.55517e-08
4.45251e-06
3.18475e-08
4.45414e-06
2.79414e-08
4.45546e-06
2.39013e-08
1.99151e-08
4.45638e-06
5.1446e-06
2.51267e-08
5.15008e-06
4.09656e-08
5.15507e-06
4.82537e-08
5.15963e-06
5.18942e-08
5.16381e-06
5.32806e-08
5.16764e-06
5.31164e-08
5.17117e-06
5.19661e-08
5.17447e-06
5.01799e-08
5.17757e-06
4.79588e-08
5.18052e-06
4.54231e-08
5.18332e-06
4.26445e-08
5.186e-06
3.9662e-08
5.18855e-06
3.64938e-08
5.19096e-06
3.31483e-08
5.19317e-06
2.96367e-08
5.19512e-06
2.59901e-08
5.19673e-06
2.2287e-08
1.86968e-08
5.19795e-06
6.0001e-06
2.08164e-08
6.00562e-06
3.54439e-08
6.01099e-06
4.2887e-08
6.01609e-06
4.67912e-08
6.02089e-06
4.84793e-08
6.02538e-06
4.86264e-08
6.02959e-06
4.77594e-08
6.03355e-06
4.62194e-08
6.0373e-06
4.42115e-08
6.04086e-06
4.18635e-08
6.04425e-06
3.92561e-08
6.04747e-06
3.64393e-08
6.05052e-06
3.34451e-08
6.05337e-06
3.02982e-08
6.05598e-06
2.70273e-08
6.05829e-06
2.36786e-08
6.06024e-06
2.03308e-08
1.713e-08
6.06181e-06
6.99811e-06
1.69732e-08
7.00354e-06
3.00091e-08
7.00917e-06
3.72643e-08
7.01472e-06
4.12381e-08
7.02009e-06
4.31124e-08
7.02521e-06
4.35062e-08
7.03007e-06
4.28919e-08
7.0347e-06
4.15905e-08
7.03911e-06
3.98048e-08
7.04331e-06
3.7666e-08
7.0473e-06
3.52612e-08
7.05109e-06
3.26497e-08
7.05466e-06
2.98749e-08
7.05798e-06
2.69743e-08
7.06102e-06
2.39885e-08
7.06373e-06
2.09702e-08
7.06607e-06
1.79921e-08
1.51746e-08
7.06803e-06
8.1624e-06
1.35836e-08
8.16765e-06
2.47654e-08
8.17341e-06
3.14976e-08
8.17932e-06
3.53368e-08
8.18517e-06
3.72608e-08
8.19086e-06
3.78142e-08
8.19635e-06
3.74037e-08
8.20162e-06
3.63197e-08
8.20667e-06
3.47553e-08
8.21149e-06
3.28401e-08
8.21609e-06
3.06644e-08
8.22044e-06
2.82937e-08
8.22454e-06
2.57793e-08
8.22835e-06
2.31669e-08
8.23183e-06
2.05029e-08
8.23496e-06
1.78398e-08
8.23772e-06
1.52404e-08
1.28009e-08
8.24009e-06
9.52072e-06
1.05942e-08
9.52571e-06
1.97763e-08
9.53152e-06
2.56825e-08
9.53768e-06
2.91802e-08
9.54393e-06
3.10079e-08
9.55012e-06
3.16198e-08
9.55618e-06
3.13517e-08
9.56204e-06
3.0454e-08
9.56769e-06
2.91022e-08
9.57311e-06
2.7419e-08
9.57829e-06
2.54937e-08
9.58318e-06
2.33937e-08
9.58779e-06
2.1174e-08
9.59207e-06
1.88831e-08
9.59601e-06
1.65678e-08
9.59957e-06
1.4276e-08
9.60275e-06
1.20593e-08
9.99247e-09
9.60556e-06
1.11054e-05
7.9274e-09
1.11101e-05
1.50541e-08
1.11159e-05
1.9883e-08
1.11222e-05
2.28378e-08
1.11288e-05
2.4421e-08
1.11355e-05
2.49841e-08
1.1142e-05
2.47901e-08
1.11484e-05
2.4042e-08
1.11546e-05
2.28898e-08
1.11606e-05
2.14433e-08
1.11663e-05
1.97853e-08
1.11717e-05
1.79805e-08
1.11768e-05
1.60823e-08
1.11816e-05
1.41375e-08
1.1186e-05
1.21889e-08
1.119e-05
1.02773e-08
1.11936e-05
8.44321e-09
6.74356e-09
1.11968e-05
1.29541e-05
5.49351e-09
1.29586e-05
1.05566e-08
1.29643e-05
1.41139e-08
1.29708e-05
1.6339e-08
1.29777e-05
1.75337e-08
1.29848e-05
1.79414e-08
1.29918e-05
1.7751e-08
1.29987e-05
1.71133e-08
1.30055e-05
1.61459e-08
1.3012e-05
1.49386e-08
1.30182e-05
1.35617e-08
1.30241e-05
1.20717e-08
1.30297e-05
1.0516e-08
1.30349e-05
8.93517e-09
1.30397e-05
7.3652e-09
1.30441e-05
5.83851e-09
1.30482e-05
4.38551e-09
3.04898e-09
1.30519e-05
1.51108e-05
3.1926e-09
1.51151e-05
6.18181e-09
1.51209e-05
8.31771e-09
1.51276e-05
9.64911e-09
1.51348e-05
1.03228e-08
1.51423e-05
1.0476e-08
1.51498e-05
1.02228e-08
1.51573e-05
9.65838e-09
1.51646e-05
8.86126e-09
1.51716e-05
7.89486e-09
1.51783e-05
6.81092e-09
1.51848e-05
5.65255e-09
1.51908e-05
4.45629e-09
1.51965e-05
3.25355e-09
1.52018e-05
2.07144e-09
1.52067e-05
9.33569e-10
1.52112e-05
-1.38375e-10
-1.11278e-09
1.52154e-05
1.76267e-05
8.99634e-10
1.76312e-05
1.74276e-09
1.76372e-05
2.32056e-09
1.76442e-05
2.61867e-09
1.76519e-05
2.66037e-09
1.76599e-05
2.47969e-09
1.7668e-05
2.11285e-09
1.7676e-05
1.59572e-09
1.76839e-05
9.62106e-10
1.76916e-05
2.42937e-10
1.76989e-05
-5.33862e-10
1.77059e-05
-1.34322e-09
1.77125e-05
-2.16279e-09
1.77188e-05
-2.97286e-09
1.77246e-05
-3.75635e-09
1.773e-05
-4.49841e-09
1.77351e-05
-5.18509e-09
-5.79374e-09
1.77398e-05
1.78284e-05
-1.27982e-09
1.78326e-05
-2.4918e-09
1.78383e-05
-3.41522e-09
1.78451e-05
-4.11683e-09
1.78524e-05
-4.68759e-09
1.78601e-05
-5.19214e-09
1.78679e-05
-5.66895e-09
1.78756e-05
-6.13984e-09
1.78832e-05
-6.61507e-09
1.78905e-05
-7.09647e-09
1.78976e-05
-7.58038e-09
1.79043e-05
-8.06003e-09
1.79107e-05
-8.52726e-09
1.79167e-05
-8.97358e-09
1.79223e-05
-9.39094e-09
1.79276e-05
-9.77184e-09
1.79325e-05
-1.01083e-08
-1.03847e-08
1.79371e-05
1.58834e-05
-3.33438e-09
1.58873e-05
-6.42325e-09
1.58926e-05
-8.65219e-09
1.58986e-05
-1.01804e-08
1.59052e-05
-1.12329e-08
1.59119e-05
-1.1971e-08
1.59188e-05
-1.25014e-08
1.59255e-05
-1.28979e-08
1.59321e-05
-1.32093e-08
1.59385e-05
-1.34654e-08
1.59446e-05
-1.36832e-08
1.59504e-05
-1.38708e-08
1.59559e-05
-1.40316e-08
1.59611e-05
-1.4166e-08
1.5966e-05
-1.42728e-08
1.59706e-05
-1.43498e-08
1.59749e-05
-1.43933e-08
-1.43926e-08
1.59789e-05
1.41508e-05
-5.47133e-09
1.41548e-05
-1.03862e-08
1.41599e-05
-1.37502e-08
1.41656e-05
-1.59232e-08
1.41717e-05
-1.73112e-08
1.41779e-05
-1.81739e-08
1.41841e-05
-1.86818e-08
1.41901e-05
-1.89563e-08
1.4196e-05
-1.908e-08
1.42016e-05
-1.91054e-08
1.4207e-05
-1.90653e-08
1.42121e-05
-1.89797e-08
1.4217e-05
-1.88605e-08
1.42215e-05
-1.87145e-08
1.42258e-05
-1.85455e-08
1.42298e-05
-1.83555e-08
1.42335e-05
-1.81437e-08
-1.79033e-08
1.4237e-05
1.26074e-05
-7.88238e-09
1.26117e-05
-1.46326e-08
1.26169e-05
-1.89317e-08
1.26225e-05
-2.1542e-08
1.26283e-05
-2.31045e-08
1.26341e-05
-2.39698e-08
1.26398e-05
-2.43669e-08
1.26453e-05
-2.44612e-08
1.26505e-05
-2.43628e-08
1.26556e-05
-2.41415e-08
1.26604e-05
-2.38412e-08
1.26649e-05
-2.34898e-08
1.26691e-05
-2.3105e-08
1.26731e-05
-2.26981e-08
1.26768e-05
-2.22761e-08
1.26803e-05
-2.18437e-08
1.26836e-05
-2.14026e-08
-2.09494e-08
1.26866e-05
1.12327e-05
-1.07873e-08
1.12374e-05
-1.93665e-08
1.12428e-05
-2.43161e-08
1.12484e-05
-2.71181e-08
1.1254e-05
-2.86778e-08
1.12594e-05
-2.94118e-08
1.12646e-05
-2.96023e-08
1.12696e-05
-2.94531e-08
1.12744e-05
-2.90945e-08
1.12788e-05
-2.86065e-08
1.1283e-05
-2.80397e-08
1.1287e-05
-2.7426e-08
1.12907e-05
-2.6786e-08
1.12941e-05
-2.61327e-08
1.12973e-05
-2.54752e-08
1.13003e-05
-2.48197e-08
1.1303e-05
-2.41701e-08
-2.3526e-08
1.13056e-05
1.00083e-05
-1.44584e-08
1.00137e-05
-2.4736e-08
1.00193e-05
-2.99158e-08
1.00248e-05
-3.26215e-08
1.00301e-05
-3.39853e-08
1.00351e-05
-3.44473e-08
1.00398e-05
-3.43355e-08
1.00443e-05
-3.38836e-08
1.00484e-05
-3.32317e-08
1.00523e-05
-3.24627e-08
1.00558e-05
-3.1628e-08
1.00592e-05
-3.07598e-08
1.00623e-05
-2.98782e-08
1.00651e-05
-2.89961e-08
1.00678e-05
-2.81221e-08
1.00702e-05
-2.72632e-08
1.00725e-05
-2.64249e-08
-2.56109e-08
1.00746e-05
8.91786e-06
-1.9221e-08
8.92391e-06
-3.07892e-08
8.92961e-06
-3.56092e-08
8.93488e-06
-3.78988e-08
8.93977e-06
-3.88708e-08
8.94425e-06
-3.89294e-08
8.94835e-06
-3.84367e-08
8.95211e-06
-3.76417e-08
8.95556e-06
-3.66811e-08
8.95873e-06
-3.56323e-08
8.96164e-06
-3.45421e-08
8.96432e-06
-3.3439e-08
8.96678e-06
-3.23398e-08
8.96904e-06
-3.12546e-08
8.97111e-06
-3.01899e-08
8.973e-06
-2.91515e-08
8.97472e-06
-2.81462e-08
-2.71828e-08
8.97629e-06
7.94686e-06
-2.5416e-08
7.95348e-06
-3.74046e-08
7.95898e-06
-4.11106e-08
7.96375e-06
-4.26693e-08
7.96796e-06
-4.30834e-08
7.97168e-06
-4.26459e-08
7.97497e-06
-4.17327e-08
7.97792e-06
-4.05888e-08
7.98057e-06
-3.93343e-08
7.98297e-06
-3.80318e-08
7.98515e-06
-3.67183e-08
7.98713e-06
-3.54153e-08
7.98892e-06
-3.41344e-08
7.99055e-06
-3.28809e-08
7.99202e-06
-3.16575e-08
7.99333e-06
-3.04666e-08
7.9945e-06
-2.93148e-08
-2.82164e-08
7.99553e-06
7.08223e-06
-3.33128e-08
7.08902e-06
-4.41969e-08
7.09386e-06
-4.59506e-08
7.09773e-06
-4.65421e-08
7.10096e-06
-4.63144e-08
7.10368e-06
-4.53614e-08
7.10599e-06
-4.40461e-08
7.10799e-06
-4.25908e-08
7.10974e-06
-4.10861e-08
7.11129e-06
-3.95741e-08
7.11265e-06
-3.80799e-08
7.11385e-06
-3.66174e-08
7.11491e-06
-3.51928e-08
7.11583e-06
-3.38069e-08
7.11663e-06
-3.24573e-08
7.11731e-06
-3.11404e-08
7.11785e-06
-2.98578e-08
-2.86227e-08
7.11826e-06
6.31217e-06
-4.29753e-08
6.31832e-06
-5.0346e-08
6.32184e-06
-4.94661e-08
6.32435e-06
-4.90531e-08
6.32625e-06
-4.82157e-08
6.32768e-06
-4.67931e-08
6.32876e-06
-4.51275e-08
6.32958e-06
-4.341e-08
6.3302e-06
-4.17004e-08
6.33064e-06
-4.00217e-08
6.33095e-06
-3.83883e-08
6.33114e-06
-3.68074e-08
6.33123e-06
-3.528e-08
6.33123e-06
-3.38023e-08
6.33113e-06
-3.2366e-08
6.33095e-06
-3.09579e-08
6.33066e-06
-2.9565e-08
-2.81752e-08
6.33021e-06
5.62586e-06
-5.39339e-08
5.62969e-06
-5.41751e-08
5.63085e-06
-5.06245e-08
5.63117e-06
-4.93785e-08
5.63092e-06
-4.79629e-08
5.63024e-06
-4.6111e-08
5.62926e-06
-4.41524e-08
5.62808e-06
-4.22323e-08
5.62676e-06
-4.03761e-08
5.62532e-06
-3.85878e-08
5.62381e-06
-3.6871e-08
5.62222e-06
-3.52263e-08
5.6206e-06
-3.36502e-08
5.61893e-06
-3.21354e-08
5.61723e-06
-3.06691e-08
5.6155e-06
-2.92267e-08
5.6137e-06
-2.77675e-08
-2.61693e-08
5.6117e-06
5.01053e-06
-6.21602e-08
5.00697e-06
-5.06104e-08
5.00192e-06
-4.55806e-08
4.99617e-06
-4.36243e-08
4.98988e-06
-4.16736e-08
4.98332e-06
-3.95491e-08
4.97664e-06
-3.74733e-08
4.96992e-06
-3.55146e-08
4.96321e-06
-3.36674e-08
4.95654e-06
-3.19211e-08
4.94994e-06
-3.02697e-08
4.94342e-06
-2.87075e-08
4.937e-06
-2.72281e-08
4.93069e-06
-2.58234e-08
4.9245e-06
-2.44818e-08
4.91845e-06
-2.31779e-08
4.91254e-06
-2.18532e-08
-2.00674e-08
4.90644e-06
4.39439e-06
4.34378e-06
4.2982e-06
4.25457e-06
4.2129e-06
4.17335e-06
4.13588e-06
4.10036e-06
4.06669e-06
4.03477e-06
4.0045e-06
3.9758e-06
3.94857e-06
3.92274e-06
3.89826e-06
3.87509e-06
3.85323e-06
3.83316e-06
1.14264e-09
-1.14267e-09
3.82488e-09
-2.67833e-09
7.4033e-09
-3.57518e-09
1.13111e-08
-3.90545e-09
1.5137e-08
-3.82453e-09
1.86106e-08
-3.4729e-09
2.15697e-08
-2.95918e-09
2.39336e-08
-2.3644e-09
2.56821e-08
-1.74965e-09
2.68373e-08
-1.1568e-09
2.74435e-08
-6.08109e-10
2.75486e-08
-1.07219e-10
2.72011e-08
3.45349e-10
2.6452e-08
7.47151e-10
2.53466e-08
1.10359e-09
2.39192e-08
1.42586e-09
2.21884e-08
1.72957e-09
2.01427e-08
2.04493e-09
1.77489e-08
2.3934e-09
1.49532e-08
2.79562e-09
1.16732e-08
3.27994e-09
7.80596e-09
3.86739e-09
3.24712e-09
4.55887e-09
-2.0983e-09
5.34534e-09
-8.31101e-09
6.21243e-09
-1.5453e-08
7.14139e-09
-2.35748e-08
8.12103e-09
-3.2715e-08
9.13919e-09
-4.28965e-08
1.01804e-08
-5.41271e-08
1.12293e-08
-6.64006e-08
1.22721e-08
-7.96996e-08
1.32974e-08
-9.39971e-08
1.4296e-08
-1.0926e-07
1.52612e-08
-1.2545e-07
1.61884e-08
-1.42525e-07
1.70748e-08
-1.60445e-07
1.79191e-08
-1.79166e-07
1.87214e-08
-1.98647e-07
1.94826e-08
-2.1885e-07
2.02043e-08
-2.39736e-07
2.08885e-08
-2.61272e-07
2.15377e-08
-2.83424e-07
2.21544e-08
-3.06164e-07
2.27412e-08
-3.29464e-07
2.33008e-08
-3.53299e-07
2.38359e-08
-3.77647e-07
2.43491e-08
-4.0249e-07
2.48428e-08
-4.27809e-07
2.53195e-08
-4.53589e-07
2.57812e-08
-4.79818e-07
2.62298e-08
-5.06484e-07
2.66667e-08
-5.33576e-07
2.70932e-08
-5.61085e-07
2.75103e-08
-5.89004e-07
2.79187e-08
-6.17322e-07
2.8319e-08
-6.46033e-07
2.87114e-08
-6.75129e-07
2.9096e-08
-7.04601e-07
2.94726e-08
-7.34441e-07
2.98407e-08
-7.64641e-07
3.01997e-08
-7.95189e-07
3.05487e-08
-8.26076e-07
3.08866e-08
-8.57288e-07
3.12121e-08
-8.88812e-07
3.15239e-08
-9.20633e-07
3.182e-08
-9.52731e-07
3.20981e-08
-9.85087e-07
3.23559e-08
-1.01768e-06
3.25906e-08
-1.05048e-06
3.27995e-08
-1.08346e-06
3.29809e-08
-1.11659e-06
3.31344e-08
-1.14986e-06
3.32641e-08
-1.18324e-06
3.33804e-08
-1.21674e-06
3.35009e-08
-1.2504e-06
3.36624e-08
-1.28442e-06
3.40139e-08
-1.31867e-06
3.4254e-08
-1.35293e-06
3.42598e-08
-1.38724e-06
3.4304e-08
-1.4216e-06
3.43621e-08
-1.45601e-06
3.44131e-08
-1.49045e-06
3.44456e-08
-1.52491e-06
3.4453e-08
-1.55934e-06
3.44319e-08
-1.59372e-06
3.43799e-08
-1.62801e-06
3.42952e-08
-1.66219e-06
3.41767e-08
-1.69622e-06
3.40234e-08
-1.73005e-06
3.38349e-08
-1.76366e-06
3.36107e-08
-1.79702e-06
3.33507e-08
-1.83007e-06
3.30545e-08
-1.86279e-06
3.27221e-08
-1.89515e-06
3.23532e-08
-1.9271e-06
3.19479e-08
-1.9586e-06
3.15064e-08
-1.98963e-06
3.10287e-08
-2.02015e-06
3.05145e-08
-2.05011e-06
2.99635e-08
-2.07949e-06
2.93755e-08
-2.10824e-06
2.87501e-08
-2.13632e-06
2.80863e-08
-2.1637e-06
2.73827e-08
-2.19034e-06
2.66374e-08
-2.21619e-06
2.58484e-08
-2.24121e-06
2.50143e-08
-2.26534e-06
2.4133e-08
-2.28854e-06
2.32022e-08
-2.31076e-06
2.22185e-08
-2.33194e-06
2.11792e-08
-2.35202e-06
2.00826e-08
-2.37095e-06
1.89277e-08
-2.38866e-06
1.77142e-08
-2.4051e-06
1.64422e-08
-2.42022e-06
1.51128e-08
-2.43395e-06
1.37291e-08
-2.44624e-06
1.22958e-08
-2.45706e-06
1.08186e-08
-2.46637e-06
9.30432e-09
-2.47413e-06
7.76121e-09
-2.48033e-06
6.19831e-09
-2.48495e-06
4.62391e-09
-2.488e-06
3.04426e-09
-2.48946e-06
1.46367e-09
-2.48935e-06
-1.13982e-10
-2.48768e-06
-1.66876e-09
-2.48449e-06
-3.18542e-09
-2.47982e-06
-4.6703e-09
-2.47369e-06
-6.12892e-09
-2.46613e-06
-7.56562e-09
-2.45714e-06
-8.98456e-09
-2.44675e-06
-1.03905e-08
-2.43496e-06
-1.17893e-08
-2.42178e-06
-1.3187e-08
-2.40719e-06
-1.45908e-08
-2.39118e-06
-1.60079e-08
-2.37374e-06
-1.74451e-08
-2.35483e-06
-1.89095e-08
-2.33442e-06
-2.04094e-08
-2.31246e-06
-2.19542e-08
-2.28891e-06
-2.35526e-08
-2.2637e-06
-2.52143e-08
-2.23675e-06
-2.69483e-08
-2.208e-06
-2.87602e-08
-2.17734e-06
-3.06547e-08
-2.1447e-06
-3.26418e-08
-2.10996e-06
-3.47315e-08
-2.07304e-06
-3.69281e-08
-2.0338e-06
-3.92347e-08
-1.99215e-06
-4.1653e-08
-1.94796e-06
-4.41842e-08
-1.90112e-06
-4.68383e-08
-1.8515e-06
-4.96138e-08
-1.799e-06
-5.24978e-08
-1.74351e-06
-5.54906e-08
-1.68492e-06
-5.85882e-08
-1.62314e-06
-6.17812e-08
-1.55808e-06
-6.50612e-08
-1.48968e-06
-6.84094e-08
-1.41787e-06
-7.18056e-08
-1.34263e-06
-7.52441e-08
-1.26392e-06
-7.87075e-08
-1.18176e-06
-8.2168e-08
-1.09615e-06
-8.56062e-08
-1.00716e-06
-8.89948e-08
-9.14845e-07
-9.23126e-08
-8.19299e-07
-9.55443e-08
-7.20666e-07
-9.86318e-08
-6.19074e-07
-1.01583e-07
-5.14752e-07
-1.0432e-07
-4.08025e-07
-1.06722e-07
-2.99176e-07
-1.08844e-07
-1.89102e-07
-1.10071e-07
-7.82226e-08
-1.10877e-07
3.2244e-08
-1.10469e-07
1.39841e-07
-1.07593e-07
2.40326e-07
-1.00487e-07
3.30438e-07
-9.01111e-08
-5.38248e-08
3.84258e-07
2.35582e-09
-3.49467e-09
6.14378e-09
-6.45878e-09
1.00499e-08
-7.47643e-09
1.35692e-08
-7.42183e-09
1.65138e-08
-6.76773e-09
1.8819e-08
-5.77778e-09
2.0471e-08
-4.61187e-09
2.14743e-08
-3.36924e-09
2.18352e-08
-2.11261e-09
2.15502e-08
-8.74313e-10
2.06174e-08
3.22125e-10
1.9053e-08
1.45465e-09
1.68752e-08
2.52079e-09
1.40994e-08
3.52113e-09
1.07276e-08
4.47403e-09
6.74434e-09
5.40834e-09
2.11655e-09
6.35703e-09
-3.1884e-09
7.3498e-09
-9.20091e-09
8.406e-09
-1.5959e-08
9.55373e-09
-2.34945e-08
1.08153e-08
-3.18244e-08
1.21969e-08
-4.09566e-08
1.36906e-08
-5.08908e-08
1.52789e-08
-6.16207e-08
1.69417e-08
-7.31412e-08
1.86614e-08
-8.54414e-08
2.04209e-08
-9.85047e-08
2.22023e-08
-1.12312e-07
2.39874e-08
-1.26842e-07
2.57594e-08
-1.42074e-07
2.75032e-08
-1.57984e-07
2.92063e-08
-1.74548e-07
3.08587e-08
-1.91741e-07
3.24533e-08
-2.09538e-07
3.39849e-08
-2.27914e-07
3.54511e-08
-2.46846e-07
3.68509e-08
-2.66308e-07
3.81852e-08
-2.86279e-07
3.94558e-08
-3.06737e-07
4.06658e-08
-3.27664e-07
4.18188e-08
-3.49043e-07
4.29187e-08
-3.70856e-07
4.39698e-08
-3.93089e-07
4.49766e-08
-4.15731e-07
4.59435e-08
-4.3877e-07
4.6875e-08
-4.62196e-07
4.77753e-08
-4.86001e-07
4.86483e-08
-5.10178e-07
4.94976e-08
-5.34722e-07
5.03265e-08
-5.59628e-07
5.11375e-08
-5.84893e-07
5.19329e-08
-6.10513e-07
5.27146e-08
-6.36485e-07
5.34838e-08
-6.62808e-07
5.42417e-08
-6.89477e-07
5.49888e-08
-7.1649e-07
5.57254e-08
-7.43845e-07
5.64515e-08
-7.71539e-07
5.71665e-08
-7.99568e-07
5.78696e-08
-8.27928e-07
5.85596e-08
-8.56614e-07
5.92353e-08
-8.85623e-07
5.98949e-08
-9.14948e-07
6.05367e-08
-9.44582e-07
6.11587e-08
-9.74521e-07
6.17586e-08
-1.00476e-06
6.2334e-08
-1.03528e-06
6.28822e-08
-1.06609e-06
6.34009e-08
-1.09718e-06
6.38878e-08
-1.12854e-06
6.43413e-08
-1.16017e-06
6.47607e-08
-1.19205e-06
6.51468e-08
-1.22418e-06
6.55019e-08
-1.25651e-06
6.5832e-08
-1.289e-06
6.61559e-08
-1.32149e-06
6.6502e-08
-1.35403e-06
6.67944e-08
-1.38676e-06
6.69873e-08
-1.4196e-06
6.71435e-08
-1.4525e-06
6.72694e-08
-1.48545e-06
6.73564e-08
-1.5184e-06
6.73965e-08
-1.55133e-06
6.73836e-08
-1.58421e-06
6.73129e-08
-1.61701e-06
6.71809e-08
-1.6497e-06
6.69848e-08
-1.68225e-06
6.67224e-08
-1.71462e-06
6.63922e-08
-1.74678e-06
6.59931e-08
-1.77869e-06
6.55241e-08
-1.81033e-06
6.49846e-08
-1.84165e-06
6.43741e-08
-1.87262e-06
6.36921e-08
-1.90321e-06
6.29386e-08
-1.93337e-06
6.21136e-08
-1.96308e-06
6.12171e-08
-1.9923e-06
6.02489e-08
-2.021e-06
5.9209e-08
-2.04913e-06
5.80967e-08
-2.07667e-06
5.69114e-08
-2.10357e-06
5.56518e-08
-2.1298e-06
5.43158e-08
-2.15532e-06
5.29006e-08
-2.18008e-06
5.14032e-08
-2.20405e-06
4.98201e-08
-2.22719e-06
4.81478e-08
-2.24944e-06
4.63817e-08
-2.27075e-06
4.45166e-08
-2.29108e-06
4.25472e-08
-2.31037e-06
4.04689e-08
-2.32857e-06
3.82784e-08
-2.34561e-06
3.59731e-08
-2.36145e-06
3.35513e-08
-2.37602e-06
3.10133e-08
-2.38927e-06
2.83619e-08
-2.40114e-06
2.56026e-08
-2.41159e-06
2.2744e-08
-2.42057e-06
1.97967e-08
-2.42804e-06
1.67743e-08
-2.43397e-06
1.36919e-08
-2.43834e-06
1.05656e-08
-2.44112e-06
7.41035e-09
-2.44232e-06
4.23865e-09
-2.44192e-06
1.0597e-09
-2.43993e-06
-2.10323e-09
-2.43638e-06
-5.213e-09
-2.43131e-06
-8.25662e-09
-2.42474e-06
-1.12434e-08
-2.41669e-06
-1.41827e-08
-2.40717e-06
-1.7083e-08
-2.3962e-06
-1.99539e-08
-2.38379e-06
-2.28061e-08
-2.36993e-06
-2.5651e-08
-2.35461e-06
-2.85009e-08
-2.33784e-06
-3.13688e-08
-2.31958e-06
-3.42681e-08
-2.29981e-06
-3.72125e-08
-2.2785e-06
-4.02176e-08
-2.25561e-06
-4.33006e-08
-2.23109e-06
-4.64781e-08
-2.20487e-06
-4.97654e-08
-2.17691e-06
-5.31795e-08
-2.14711e-06
-5.67389e-08
-2.11541e-06
-6.04592e-08
-2.08171e-06
-6.43516e-08
-2.04593e-06
-6.84288e-08
-2.00795e-06
-7.27055e-08
-1.96769e-06
-7.7191e-08
-1.92503e-06
-8.18926e-08
-1.87987e-06
-8.68182e-08
-1.83209e-06
-9.1971e-08
-1.78158e-06
-9.73521e-08
-1.72823e-06
-1.02962e-07
-1.67194e-06
-1.0879e-07
-1.61261e-06
-1.14821e-07
-1.55016e-06
-1.21043e-07
-1.48449e-06
-1.27444e-07
-1.41555e-06
-1.34002e-07
-1.34327e-06
-1.40679e-07
-1.26763e-06
-1.47444e-07
-1.18859e-06
-1.54279e-07
-1.10616e-06
-1.61133e-07
-1.02037e-06
-1.6796e-07
-9.31254e-07
-1.74722e-07
-8.38888e-07
-1.81358e-07
-7.43369e-07
-1.87833e-07
-6.44817e-07
-1.94095e-07
-5.43396e-07
-2.00055e-07
-4.39269e-07
-2.05717e-07
-3.32671e-07
-2.10925e-07
-2.23831e-07
-2.15566e-07
-1.13013e-07
-2.19668e-07
-6.0723e-10
-2.22478e-07
1.11998e-07
-2.23484e-07
2.23146e-07
-2.21617e-07
3.31333e-07
-2.15779e-07
4.34702e-07
-2.03858e-07
5.28806e-07
-1.84214e-07
-1.4151e-07
6.16495e-07
2.54334e-09
-6.0349e-09
5.69547e-09
-9.6051e-09
8.34349e-09
-1.01214e-08
1.03158e-08
-9.39258e-09
1.16031e-08
-8.0542e-09
1.22138e-08
-6.38837e-09
1.21476e-08
-4.54607e-09
1.13888e-08
-2.61122e-09
9.91696e-09
-6.42012e-10
7.7356e-09
1.30552e-09
4.86806e-09
3.18806e-09
1.33094e-09
4.99014e-09
-2.86827e-09
6.71857e-09
-7.72575e-09
8.3774e-09
-1.32469e-08
9.99429e-09
-1.9442e-08
1.16028e-08
-2.63197e-08
1.32346e-08
-3.38854e-08
1.49155e-08
-4.21458e-08
1.66666e-08
-5.10968e-08
1.8505e-08
-6.07212e-08
2.044e-08
-7.09955e-08
2.24714e-08
-8.18955e-08
2.45906e-08
-9.33995e-08
2.67828e-08
-1.05489e-07
2.90309e-08
-1.18145e-07
3.13175e-08
-1.3135e-07
3.36253e-08
-1.45085e-07
3.59368e-08
-1.59334e-07
3.82354e-08
-1.74081e-07
4.05057e-08
-1.89313e-07
4.27342e-08
-2.05017e-07
4.49096e-08
-2.21181e-07
4.70228e-08
-2.37796e-07
4.90672e-08
-2.5485e-07
5.10387e-08
-2.72334e-07
5.29351e-08
-2.90239e-07
5.4756e-08
-3.08556e-07
5.65028e-08
-3.27277e-07
5.8178e-08
-3.46395e-07
5.97852e-08
-3.65904e-07
6.13286e-08
-3.85797e-07
6.28128e-08
-4.06069e-07
6.42428e-08
-4.26715e-07
6.56236e-08
-4.47732e-07
6.69604e-08
-4.69115e-07
6.82581e-08
-4.90861e-07
6.95214e-08
-5.12967e-07
7.07548e-08
-5.35431e-07
7.19622e-08
-5.58251e-07
7.3147e-08
-5.81425e-07
7.43123e-08
-6.04952e-07
7.54603e-08
-6.2883e-07
7.65932e-08
-6.53057e-07
7.77121e-08
-6.77634e-07
7.88182e-08
-7.02556e-07
7.99118e-08
-7.27824e-07
8.09931e-08
-7.53433e-07
8.20617e-08
-7.79383e-07
8.31167e-08
-8.0567e-07
8.41569e-08
-8.32291e-07
8.51807e-08
-8.59242e-07
8.61863e-08
-8.86519e-07
8.71715e-08
-9.14116e-07
8.81339e-08
-9.42028e-07
8.90708e-08
-9.70249e-07
8.99794e-08
-9.98771e-07
9.08564e-08
-1.02759e-06
9.16988e-08
-1.05669e-06
9.25035e-08
-1.08607e-06
9.32675e-08
-1.11572e-06
9.39883e-08
-1.14562e-06
9.4664e-08
-1.17577e-06
9.52936e-08
-1.20614e-06
9.58766e-08
-1.23673e-06
9.64145e-08
-1.26748e-06
9.69109e-08
-1.29834e-06
9.73634e-08
-1.3293e-06
9.77468e-08
-1.36036e-06
9.80535e-08
-1.39152e-06
9.8298e-08
-1.42273e-06
9.84808e-08
-1.45397e-06
9.85958e-08
-1.48521e-06
9.86359e-08
-1.51642e-06
9.85945e-08
-1.54757e-06
9.84663e-08
-1.57864e-06
9.82466e-08
-1.60958e-06
9.7932e-08
-1.64038e-06
9.75194e-08
-1.671e-06
9.70066e-08
-1.7014e-06
9.63921e-08
-1.73155e-06
9.56744e-08
-1.76142e-06
9.48525e-08
-1.79097e-06
9.39257e-08
-1.82017e-06
9.28935e-08
-1.84899e-06
9.17558e-08
-1.87739e-06
9.05125e-08
-1.90533e-06
8.91637e-08
-1.93279e-06
8.77093e-08
-1.95973e-06
8.61488e-08
-1.98612e-06
8.44817e-08
-2.01191e-06
8.27067e-08
-2.03708e-06
8.08219e-08
-2.06159e-06
7.8824e-08
-2.0854e-06
7.67094e-08
-2.10847e-06
7.44735e-08
-2.13076e-06
7.21114e-08
-2.15223e-06
6.96173e-08
-2.17283e-06
6.69842e-08
-2.19252e-06
6.42047e-08
-2.21125e-06
6.12712e-08
-2.22896e-06
5.81771e-08
-2.24559e-06
5.49169e-08
-2.26111e-06
5.14861e-08
-2.27544e-06
4.78821e-08
-2.28853e-06
4.4105e-08
-2.30033e-06
4.01589e-08
-2.31078e-06
3.60512e-08
-2.31983e-06
3.17939e-08
-2.32743e-06
2.74024e-08
-2.33356e-06
2.28959e-08
-2.33816e-06
1.82962e-08
-2.34122e-06
1.36261e-08
-2.34272e-06
8.9074e-09
-2.34264e-06
4.15972e-09
-2.34098e-06
-6.0098e-10
-2.33776e-06
-5.32408e-09
-2.33301e-06
-9.96059e-09
-2.32675e-06
-1.45101e-08
-2.31902e-06
-1.89827e-08
-2.30981e-06
-2.33905e-08
-2.29914e-06
-2.77471e-08
-2.28703e-06
-3.20672e-08
-2.27347e-06
-3.63666e-08
-2.25846e-06
-4.06623e-08
-2.24199e-06
-4.49725e-08
-2.22404e-06
-4.93161e-08
-2.2046e-06
-5.3713e-08
-2.18363e-06
-5.81842e-08
-2.16109e-06
-6.27527e-08
-2.13695e-06
-6.74429e-08
-2.11115e-06
-7.22789e-08
-2.08363e-06
-7.72841e-08
-2.05433e-06
-8.24827e-08
-2.02317e-06
-8.78998e-08
-1.99007e-06
-9.35586e-08
-1.95494e-06
-9.94785e-08
-1.91769e-06
-1.05677e-07
-1.87823e-06
-1.1217e-07
-1.83645e-06
-1.18972e-07
-1.79225e-06
-1.26093e-07
-1.74552e-06
-1.33545e-07
-1.69616e-06
-1.41333e-07
-1.64405e-06
-1.49456e-07
-1.5891e-06
-1.57911e-07
-1.53121e-06
-1.66683e-07
-1.47028e-06
-1.75748e-07
-1.40624e-06
-1.85086e-07
-1.33901e-06
-1.94678e-07
-1.26852e-06
-2.04489e-07
-1.19474e-06
-2.14463e-07
-1.11763e-06
-2.24553e-07
-1.03718e-06
-2.34728e-07
-9.53401e-07
-2.44912e-07
-8.66327e-07
-2.55035e-07
-7.76005e-07
-2.65043e-07
-6.82523e-07
-2.7484e-07
-5.8598e-07
-2.84376e-07
-4.86505e-07
-2.93567e-07
-3.84266e-07
-3.02294e-07
-2.79425e-07
-3.10557e-07
-1.72233e-07
-3.18116e-07
-6.28946e-08
-3.24904e-07
4.77657e-08
-3.30328e-07
1.58605e-07
-3.33318e-07
2.68748e-07
-3.33626e-07
3.77337e-07
-3.30206e-07
4.83405e-07
-3.21847e-07
5.85874e-07
-3.06329e-07
6.83478e-07
-2.81817e-07
-2.38468e-07
7.80435e-07
1.91887e-09
-7.94985e-09
3.54514e-09
-1.1225e-08
4.42303e-09
-1.0996e-08
4.57215e-09
-9.53982e-09
4.0096e-09
-7.49054e-09
2.73948e-09
-5.11772e-09
7.56641e-10
-2.56324e-09
-1.93705e-09
8.20257e-11
-5.29885e-09
2.71907e-09
-9.27837e-09
5.28419e-09
-1.38514e-08
7.7603e-09
-1.90103e-08
1.01483e-08
-2.47508e-08
1.24585e-08
-3.10817e-08
1.47079e-08
-3.80091e-08
1.69216e-08
-4.55329e-08
1.91269e-08
-5.36477e-08
2.13495e-08
-6.23429e-08
2.36111e-08
-7.16041e-08
2.59282e-08
-8.14105e-08
2.83117e-08
-9.17364e-08
3.07663e-08
-1.02555e-07
3.32901e-08
-1.1384e-07
3.5876e-08
-1.2557e-07
3.85124e-08
-1.37724e-07
4.11857e-08
-1.50288e-07
4.38809e-08
-1.63245e-07
4.65829e-08
-1.76585e-07
4.92769e-08
-1.90298e-07
5.19485e-08
-2.04377e-07
5.45847e-08
-2.18818e-07
5.71741e-08
-2.33615e-07
5.97069e-08
-2.48769e-07
6.21755e-08
-2.64276e-07
6.45742e-08
-2.80137e-07
6.68995e-08
-2.96352e-07
6.91496e-08
-3.1292e-07
7.13244e-08
-3.29842e-07
7.34252e-08
-3.47118e-07
7.54547e-08
-3.64748e-07
7.74161e-08
-3.82732e-07
7.93137e-08
-4.0107e-07
8.11518e-08
-4.19762e-07
8.29354e-08
-4.38808e-07
8.46694e-08
-4.58206e-07
8.63588e-08
-4.77956e-07
8.80084e-08
-4.98058e-07
8.96229e-08
-5.18509e-07
9.12065e-08
-5.39309e-07
9.27632e-08
-5.60458e-07
9.42962e-08
-5.81954e-07
9.58086e-08
-6.03795e-07
9.73025e-08
-6.25981e-07
9.87799e-08
-6.48511e-07
1.00242e-07
-6.71382e-07
1.01689e-07
-6.94593e-07
1.03123e-07
-7.18141e-07
1.04542e-07
-7.42025e-07
1.05945e-07
-7.66241e-07
1.07333e-07
-7.90787e-07
1.08703e-07
-8.1566e-07
1.10054e-07
-8.40856e-07
1.11382e-07
-8.66369e-07
1.12685e-07
-8.92197e-07
1.13961e-07
-9.18332e-07
1.15206e-07
-9.44769e-07
1.16416e-07
-9.71501e-07
1.17588e-07
-9.98519e-07
1.18718e-07
-1.02582e-06
1.198e-07
-1.05338e-06
1.20833e-07
-1.08121e-06
1.21811e-07
-1.10927e-06
1.22731e-07
-1.13757e-06
1.23589e-07
-1.16608e-06
1.24383e-07
-1.19477e-06
1.2511e-07
-1.22363e-06
1.25769e-07
-1.25262e-06
1.26352e-07
-1.28172e-06
1.2685e-07
-1.31093e-06
1.27259e-07
-1.34021e-06
1.27582e-07
-1.36954e-06
1.27814e-07
-1.3989e-06
1.2795e-07
-1.42824e-06
1.27983e-07
-1.45756e-06
1.27906e-07
-1.4868e-06
1.27713e-07
-1.51595e-06
1.27399e-07
-1.54498e-06
1.26959e-07
-1.57385e-06
1.26391e-07
-1.60254e-06
1.25691e-07
-1.63101e-06
1.24858e-07
-1.65922e-06
1.23889e-07
-1.68715e-06
1.22784e-07
-1.71477e-06
1.21541e-07
-1.74204e-06
1.20161e-07
-1.76892e-06
1.18642e-07
-1.7954e-06
1.16986e-07
-1.82143e-06
1.15191e-07
-1.84698e-06
1.13259e-07
-1.87201e-06
1.11188e-07
-1.89651e-06
1.08978e-07
-1.92043e-06
1.06628e-07
-1.94374e-06
1.04134e-07
-1.96641e-06
1.01492e-07
-1.9884e-06
9.86985e-08
-2.00967e-06
9.57466e-08
-2.03019e-06
9.26299e-08
-2.04992e-06
8.93401e-08
-2.0688e-06
8.58682e-08
-2.0868e-06
8.22043e-08
-2.10387e-06
7.83385e-08
-2.11995e-06
7.42617e-08
-2.135e-06