/*--------------------------------*- C++ -*----------------------------------*\
| =========                 |                                                 |
| \\      /  F ield         | OpenFOAM: The Open Source CFD Toolbox           |
|  \\    /   O peration     | Version:  1.4.2                                 |
|   \\  /    A nd           | Web:      http://www.openfoam.org               |
|    \\/     M anipulation  |                                                 |
\*---------------------------------------------------------------------------*/
FoamFile
{
    version     2.0;
    format      ascii;
    class       volVectorField;
    object      U;
    location    "850";
}
// * * * * * * * * * * * * * * * * * * * * * * * * * * * * * * * * * * * * * //

dimensions      [0 1 -1 0 0 0 0];

internalField   nonuniform List<vector> 
12225
(
(9.77631 0.0380806 0)
(9.58165 0.038804 0)
(9.36738 0.0370217 0)
(9.16174 0.0361565 0)
(8.97092 0.0352106 0)
(8.79277 0.0340384 0)
(8.6261 0.0327681 0)
(8.47062 0.0314632 0)
(8.326 0.0301378 0)
(8.19176 0.0287967 0)
(8.06744 0.0274437 0)
(7.95263 0.0260787 0)
(7.84694 0.0246947 0)
(7.75009 0.0232721 0)
(7.66197 0.0217644 0)
(7.58277 0.0200516 0)
(7.51419 0.0178736 0)
(7.44958 0.00472668 0)
(10.004 0.0585748 0)
(10.0077 0.0555252 0)
(9.98308 0.0518576 0)
(9.95111 0.0514245 0)
(9.9183 0.051143 0)
(9.8842 0.0504803 0)
(9.84878 0.0496408 0)
(9.81263 0.048715 0)
(9.77623 0.0477022 0)
(9.73993 0.0465935 0)
(9.70401 0.0453824 0)
(9.66879 0.0440546 0)
(9.63458 0.0425777 0)
(9.60176 0.040885 0)
(9.57084 0.038833 0)
(9.54259 0.0360841 0)
(9.51854 0.0318014 0)
(9.49674 0.0221494 0)
(10.0174 0.0524282 0)
(10.037 0.0526695 0)
(10.0383 0.0512395 0)
(10.0338 0.0521819 0)
(10.0285 0.0528018 0)
(10.0223 0.0527824 0)
(10.0149 0.052455 0)
(10.0069 0.0519633 0)
(9.99849 0.0513248 0)
(9.98977 0.0505372 0)
(9.98093 0.0495928 0)
(9.97209 0.0484666 0)
(9.96343 0.047103 0)
(9.95514 0.045393 0)
(9.94749 0.0431193 0)
(9.94077 0.0398278 0)
(9.93528 0.0344961 0)
(9.92769 0.0245915 0)
(10.0158 0.0449541 0)
(10.0376 0.0501282 0)
(10.0459 0.0506569 0)
(10.0489 0.0521629 0)
(10.051 0.0531316 0)
(10.0522 0.0534182 0)
(10.0526 0.0533386 0)
(10.0524 0.0530393 0)
(10.0519 0.05255 0)
(10.0512 0.0518738 0)
(10.0505 0.0510017 0)
(10.0498 0.0499016 0)
(10.0493 0.0485055 0)
(10.049 0.0466872 0)
(10.049 0.0442188 0)
(10.0494 0.0406937 0)
(10.05 0.0354495 0)
(10.0486 0.0275827 0)
(10.0125 0.0370829 0)
(10.0331 0.0461501 0)
(10.0446 0.0485772 0)
(10.0509 0.0506876 0)
(10.0561 0.0519863 0)
(10.0603 0.0525114 0)
(10.0638 0.0525908 0)
(10.0667 0.0523885 0)
(10.0694 0.0519509 0)
(10.0718 0.0512883 0)
(10.0741 0.0503923 0)
(10.0765 0.0492285 0)
(10.0789 0.0477268 0)
(10.0814 0.045764 0)
(10.0841 0.0431394 0)
(10.0868 0.0395479 0)
(10.0891 0.0346236 0)
(10.0899 0.0281473 0)
(10.0094 0.0302354 0)
(10.0273 0.0413851 0)
(10.0399 0.0454342 0)
(10.0483 0.0482179 0)
(10.0552 0.0499086 0)
(10.0612 0.0507089 0)
(10.0663 0.0509646 0)
(10.0709 0.0508608 0)
(10.0752 0.0504674 0)
(10.0792 0.0498093 0)
(10.083 0.0488837 0)
(10.0868 0.0476599 0)
(10.0906 0.046073 0)
(10.0943 0.0440162 0)
(10.098 0.0413325 0)
(10.1015 0.0378212 0)
(10.1045 0.0333187 0)
(10.1063 0.0279068 0)
(10.0067 0.0244794 0)
(10.0216 0.036386 0)
(10.0341 0.041588 0)
(10.0434 0.0449384 0)
(10.0514 0.0470194 0)
(10.0585 0.0481169 0)
(10.0648 0.0485739 0)
(10.0704 0.0485908 0)
(10.0757 0.0482591 0)
(10.0807 0.047618 0)
(10.0854 0.0466745 0)
(10.09 0.0454066 0)
(10.0945 0.0437627 0)
(10.0989 0.0416611 0)
(10.1031 0.0389938 0)
(10.1069 0.0356479 0)
(10.1102 0.031583 0)
(10.1125 0.0269841 0)
(10.005 0.02036 0)
(10.0173 0.03221 0)
(10.0291 0.0380129 0)
(10.0386 0.0417171 0)
(10.047 0.044059 0)
(10.0545 0.0453697 0)
(10.0614 0.0459851 0)
(10.0677 0.0461086 0)
(10.0735 0.0458408 0)
(10.079 0.0452297 0)
(10.0843 0.0442904 0)
(10.0893 0.0430103 0)
(10.0942 0.0413526 0)
(10.0989 0.0392598 0)
(10.1033 0.0366633 0)
(10.1073 0.0335078 0)
(10.1107 0.0298123 0)
(10.1133 0.0257772 0)
(10.0039 0.0172064 0)
(10.0141 0.028626 0)
(10.0249 0.0347223 0)
(10.0342 0.0386528 0)
(10.0426 0.0411748 0)
(10.0504 0.0426423 0)
(10.0576 0.0433799 0)
(10.0642 0.0435888 0)
(10.0704 0.0433754 0)
(10.0763 0.0427947 0)
(10.0818 0.041869 0)
(10.0872 0.0405944 0)
(10.0923 0.0389474 0)
(10.0971 0.036891 0)
(10.1016 0.0343872 0)
(10.1057 0.0314193 0)
(10.1092 0.0280376 0)
(10.112 0.0244358 0)
(10.0029 0.0143517 0)
(10.0112 0.0249826 0)
(10.0208 0.0311372 0)
(10.0297 0.035173 0)
(10.0379 0.0378105 0)
(10.0457 0.0393983 0)
(10.0529 0.0402379 0)
(10.0597 0.0405232 0)
(10.0661 0.0403629 0)
(10.0722 0.0398173 0)
(10.078 0.0389153 0)
(10.0835 0.0376628 0)
(10.0888 0.0360503 0)
(10.0937 0.0340613 0)
(10.0983 0.0316842 0)
(10.1024 0.028931 0)
(10.106 0.0258677 0)
(10.109 0.0226716 0)
(10.0021 0.0117944 0)
(10.0088 0.0213646 0)
(10.0171 0.0273412 0)
(10.0253 0.0313364 0)
(10.0331 0.0339977 0)
(10.0406 0.0356466 0)
(10.0477 0.0365501 0)
(10.0545 0.0368891 0)
(10.061 0.0367712 0)
(10.0671 0.0362597 0)
(10.073 0.0353893 0)
(10.0786 0.0341758 0)
(10.0838 0.0326231 0)
(10.0888 0.0307329 0)
(10.0933 0.0285143 0)
(10.0975 0.0259981 0)
(10.1011 0.0232544 0)
(10.1042 0.0204377 0)
(10.0015 0.00953057 0)
(10.0068 0.0178485 0)
(10.0139 0.0234153 0)
(10.0212 0.027218 0)
(10.0284 0.0297944 0)
(10.0355 0.0314268 0)
(10.0424 0.032341 0)
(10.049 0.0326988 0)
(10.0553 0.0326031 0)
(10.0614 0.0321177 0)
(10.0671 0.0312825 0)
(10.0726 0.0301213 0)
(10.0778 0.0286502 0)
(10.0827 0.0268849 0)
(10.0872 0.0248492 0)
(10.0912 0.0225833 0)
(10.0948 0.0201537 0)
(10.0981 0.0176893 0)
(10.0011 0.00753712 0)
(10.0052 0.0144893 0)
(10.0111 0.0194333 0)
(10.0176 0.0228909 0)
(10.0242 0.0252663 0)
(10.0307 0.0267934 0)
(10.0372 0.0276545 0)
(10.0435 0.0279878 0)
(10.0495 0.0278872 0)
(10.0553 0.0274149 0)
(10.0609 0.0266136 0)
(10.0662 0.0255136 0)
(10.0712 0.0241399 0)
(10.0759 0.0225178 0)
(10.0802 0.0206789 0)
(10.0842 0.0186658 0)
(10.0877 0.0165372 0)
(10.091 0.014397 0)
(10.0009 0.00577081 0)
(10.0041 0.0113099 0)
(10.0089 0.0154511 0)
(10.0146 0.0184155 0)
(10.0205 0.0204723 0)
(10.0264 0.0218004 0)
(10.0324 0.0225397 0)
(10.0383 0.0228009 0)
(10.044 0.022665 0)
(10.0495 0.02219 0)
(10.0547 0.0214185 0)
(10.0598 0.0203843 0)
(10.0645 0.0191172 0)
(10.0689 0.0176474 0)
(10.0731 0.0160088 0)
(10.0768 0.0142414 0)
(10.0803 0.0123941 0)
(10.0834 0.0105491 0)
(10.0007 0.0041775 0)
(10.0032 0.00829749 0)
(10.0073 0.0114957 0)
(10.0121 0.0138295 0)
(10.0174 0.0154528 0)
(10.0228 0.0164884 0)
(10.0282 0.0170351 0)
(10.0337 0.017175 0)
(10.0389 0.0169729 0)
(10.0441 0.0164782 0)
(10.049 0.0157304 0)
(10.0537 0.0147628 0)
(10.0581 0.0136059 0)
(10.0623 0.0122899 0)
(10.0662 0.0108469 0)
(10.0697 0.00931123 0)
(10.073 0.00772223 0)
(10.0761 0.00614365 0)
(10.0005 0.00269778 0)
(10.0026 0.00540365 0)
(10.0061 0.00755282 0)
(10.0103 0.00913283 0)
(10.0149 0.0102142 0)
(10.0198 0.0108668 0)
(10.0248 0.0111512 0)
(10.0298 0.0111208 0)
(10.0347 0.0108207 0)
(10.0395 0.0102886 0)
(10.044 0.00955633 0)
(10.0484 0.00865267 0)
(10.0525 0.0076046 0)
(10.0564 0.00643867 0)
(10.0601 0.00518168 0)
(10.0634 0.0038613 0)
(10.0666 0.00250754 0)
(10.0695 0.00116919 0)
(10.0005 0.00126623 0)
(10.0023 0.00254337 0)
(10.0053 0.00355613 0)
(10.009 0.00427541 0)
(10.0133 0.00471649 0)
(10.0177 0.00490329 0)
(10.0223 0.00486048 0)
(10.0269 0.00461271 0)
(10.0315 0.0041835 0)
(10.0359 0.00359481 0)
(10.0402 0.0028672 0)
(10.0443 0.00202068 0)
(10.0481 0.00107508 0)
(10.0518 5.01661e-05 0)
(10.0552 -0.00103431 0)
(10.0584 -0.0021583 0)
(10.0614 -0.00330002 0)
(10.0642 -0.00442218 0)
(10.0004 -0.000117531 0)
(10.0021 -0.000246662 0)
(10.005 -0.000382752 0)
(10.0085 -0.000552544 0)
(10.0125 -0.000782177 0)
(10.0168 -0.00108882 0)
(10.0211 -0.00148155 0)
(10.0255 -0.00196372 0)
(10.0298 -0.00253433 0)
(10.034 -0.00318889 0)
(10.0381 -0.00392009 0)
(10.0419 -0.00471871 0)
(10.0456 -0.00557412 0)
(10.0491 -0.00647472 0)
(10.0523 -0.00740839 0)
(10.0554 -0.0083624 0)
(10.0583 -0.00932212 0)
(10.061 -0.0102601 0)
(10.0004 -0.00143175 0)
(10.0022 -0.00288117 0)
(10.0052 -0.00407672 0)
(10.0088 -0.00505247 0)
(10.0128 -0.00588161 0)
(10.0171 -0.00662316 0)
(10.0214 -0.00731912 0)
(10.0257 -0.00799995 0)
(10.0299 -0.00868648 0)
(10.034 -0.00939112 0)
(10.0379 -0.0101198 0)
(10.0417 -0.0108738 0)
(10.0452 -0.011651 0)
(10.0486 -0.0124472 0)
(10.0518 -0.0132566 0)
(10.0548 -0.0140725 0)
(10.0576 -0.0148853 0)
(10.0602 -0.0156752 0)
(10.0005 -0.00273639 0)
(10.0026 -0.00543857 0)
(10.0059 -0.00757403 0)
(10.0098 -0.00922614 0)
(10.014 -0.0105392 0)
(10.0184 -0.0116188 0)
(10.0228 -0.0125401 0)
(10.0271 -0.01336 0)
(10.0314 -0.0141194 0)
(10.0354 -0.0148456 0)
(10.0393 -0.0155555 0)
(10.0431 -0.016259 0)
(10.0466 -0.0169612 0)
(10.0499 -0.0176635 0)
(10.053 -0.0183654 0)
(10.0559 -0.0190645 0)
(10.0587 -0.0197556 0)
(10.0613 -0.0204245 0)
(10.0007 -0.00414849 0)
(10.0032 -0.00809922 0)
(10.0071 -0.0110624 0)
(10.0115 -0.0132576 0)
(10.0161 -0.0149363 0)
(10.0207 -0.0162539 0)
(10.0253 -0.0173187 0)
(10.0297 -0.0182138 0)
(10.034 -0.0189984 0)
(10.0381 -0.019712 0)
(10.042 -0.0203802 0)
(10.0457 -0.0210195 0)
(10.0492 -0.0216402 0)
(10.0524 -0.0222482 0)
(10.0555 -0.0228469 0)
(10.0584 -0.0234375 0)
(10.061 -0.0240183 0)
(10.0636 -0.0245802 0)
(10.0009 -0.00579427 0)
(10.0043 -0.011012 0)
(10.009 -0.0146604 0)
(10.014 -0.0172475 0)
(10.019 -0.0191655 0)
(10.0239 -0.0206149 0)
(10.0287 -0.0217367 0)
(10.0333 -0.0226397 0)
(10.0376 -0.0233985 0)
(10.0417 -0.0240615 0)
(10.0456 -0.0246605 0)
(10.0492 -0.0252165 0)
(10.0526 -0.0257431 0)
(10.0557 -0.0262492 0)
(10.0587 -0.0267409 0)
(10.0614 -0.0272223 0)
(10.064 -0.027695 0)
(10.0664 -0.0281546 0)
(10.0014 -0.0078267 0)
(10.0059 -0.0142978 0)
(10.0117 -0.0184203 0)
(10.0174 -0.0212189 0)
(10.0228 -0.0232368 0)
(10.028 -0.0247033 0)
(10.0329 -0.025791 0)
(10.0374 -0.0266323 0)
(10.0417 -0.0273131 0)
(10.0457 -0.027887 0)
(10.0494 -0.028389 0)
(10.0529 -0.0288421 0)
(10.0561 -0.0292614 0)
(10.0591 -0.0296569 0)
(10.0618 -0.0300361 0)
(10.0644 -0.0304049 0)
(10.0667 -0.0307682 0)
(10.0689 -0.031127 0)
(10.0021 -0.0104339 0)
(10.0083 -0.0180331 0)
(10.0153 -0.0223159 0)
(10.0216 -0.0251116 0)
(10.0272 -0.0270757 0)
(10.0325 -0.0284388 0)
(10.0373 -0.0294027 0)
(10.0417 -0.0301187 0)
(10.0457 -0.0306769 0)
(10.0495 -0.0311308 0)
(10.0529 -0.031515 0)
(10.056 -0.0318516 0)
(10.0589 -0.0321551 0)
(10.0615 -0.0324348 0)
(10.064 -0.0326979 0)
(10.0662 -0.0329511 0)
(10.0682 -0.0332021 0)
(10.0701 -0.0334592 0)
(10.0033 -0.0138378 0)
(10.0117 -0.0222098 0)
(10.0198 -0.0262208 0)
(10.0263 -0.028777 0)
(10.0318 -0.0305345 0)
(10.0368 -0.0316849 0)
(10.0412 -0.0324509 0)
(10.0451 -0.0329923 0)
(10.0486 -0.0333958 0)
(10.0518 -0.0337108 0)
(10.0547 -0.0339677 0)
(10.0573 -0.0341858 0)
(10.0597 -0.0343764 0)
(10.0618 -0.0345461 0)
(10.0638 -0.0346995 0)
(10.0655 -0.0348415 0)
(10.0671 -0.0349813 0)
(10.0685 -0.0351355 0)
(10.005 -0.0182948 0)
(10.0159 -0.0266579 0)
(10.0247 -0.0298652 0)
(10.0307 -0.0319614 0)
(10.0355 -0.0333802 0)
(10.0397 -0.0342349 0)
(10.0432 -0.0347593 0)
(10.0462 -0.0351088 0)
(10.0489 -0.0353556 0)
(10.0512 -0.0355368 0)
(10.0532 -0.0356755 0)
(10.0551 -0.0357858 0)
(10.0566 -0.0358748 0)
(10.058 -0.0359453 0)
(10.0593 -0.0359973 0)
(10.0603 -0.0360306 0)
(10.0612 -0.0360518 0)
(10.0619 -0.0360821 0)
(10.0075 -0.0241245 0)
(10.0207 -0.0310223 0)
(10.0287 -0.0328132 0)
(10.0331 -0.034314 0)
(10.0363 -0.0353594 0)
(10.0389 -0.0359129 0)
(10.0409 -0.0362051 0)
(10.0424 -0.036379 0)
(10.0435 -0.0364869 0)
(10.0443 -0.0365514 0)
(10.0449 -0.0365871 0)
(10.0453 -0.0366031 0)
(10.0455 -0.0366028 0)
(10.0456 -0.0365852 0)
(10.0455 -0.036545 0)
(10.0453 -0.0364732 0)
(10.0449 -0.0363648 0)
(10.0444 -0.0362286 0)
(10.0101 -0.0307452 0)
(10.0238 -0.0344066 0)
(10.0287 -0.0343606 0)
(10.0292 -0.0352339 0)
(10.0289 -0.0359343 0)
(10.0281 -0.0362203 0)
(10.0266 -0.0363031 0)
(10.0246 -0.0363094 0)
(10.0224 -0.0362751 0)
(10.0199 -0.0362135 0)
(10.0173 -0.0361344 0)
(10.0145 -0.0360442 0)
(10.0116 -0.0359443 0)
(10.0087 -0.0358313 0)
(10.0057 -0.0356946 0)
(10.0027 -0.0355119 0)
(9.99954 -0.0352493 0)
(9.99611 -0.0348426 0)
(10.0062 -0.0364078 0)
(10.0142 -0.0379465 0)
(10.0067 -0.0361114 0)
(9.99424 -0.0359741 0)
(9.98161 -0.0359968 0)
(9.96879 -0.0357898 0)
(9.95556 -0.0354936 0)
(9.94213 -0.0351946 0)
(9.92868 -0.0349051 0)
(9.91529 -0.0346225 0)
(9.90202 -0.0343462 0)
(9.88889 -0.0340756 0)
(9.87595 -0.0338084 0)
(9.86322 -0.033539 0)
(9.85071 -0.0332555 0)
(9.83847 -0.0329279 0)
(9.82653 -0.0324877 0)
(9.81434 -0.0315489 0)
(9.89292 -0.0248308 0)
(9.80337 -0.0270758 0)
(9.69906 -0.0264877 0)
(9.59608 -0.0263384 0)
(9.49956 -0.0261458 0)
(9.40857 -0.0257999 0)
(9.32226 -0.025393 0)
(9.24037 -0.0249791 0)
(9.16275 -0.0245706 0)
(9.08917 -0.0241692 0)
(9.01941 -0.0237753 0)
(8.95326 -0.0233891 0)
(8.89051 -0.0230095 0)
(8.831 -0.0226345 0)
(8.77457 -0.0222588 0)
(8.72108 -0.0218666 0)
(8.67063 -0.0214109 0)
(8.6217 -0.0205338 0)
(0.000420331 -0.000764411 0)
(0.00199512 -0.00203604 0)
(0.0048474 -0.00310957 0)
(0.00826189 -0.00374177 0)
(0.0117538 -0.0039177 0)
(0.0150285 -0.00373304 0)
(0.0179045 -0.00330386 -4.51945e-19)
(0.0202783 -0.00273789 4.37822e-19)
(0.0221086 -0.00212756 0)
(0.0234004 -0.00154062 4.20476e-19)
(0.0241857 -0.00101469 0)
(0.0245092 -0.000559543 0)
(0.0244044 -0.000173725 0)
(0.0239216 0.000139659 -4.00988e-19)
(0.0231047 0.00038248 0)
(0.0219909 0.000562183 0)
(0.0206061 0.000693141 3.86855e-19)
(0.0189446 0.000807606 0)
(0.0169848 0.000938625 0)
(0.0146919 0.00112535 0)
(0.012011 0.00142229 -3.82591e-19)
(0.00886086 0.00186755 0)
(0.00516902 0.00246032 -4.06942e-19)
(0.000779685 0.00318117 0)
(-0.0043935 0.00399201 0)
(-0.0103408 0.0048629 -3.87917e-19)
(-0.0171544 0.00579284 0)
(-0.0248743 0.00676873 3.46664e-19)
(-0.0335294 0.00777102 0)
(-0.0431351 0.00877937 -3.04674e-19)
(-0.0536934 0.00977551 0)
(-0.065195 0.0107444 0)
(-0.0776207 0.0116746 0)
(-0.0909444 0.0125581 0)
(-0.105135 0.0133901 0)
(-0.120158 0.014168 2.00174e-19)
(-0.135976 0.0148915 0)
(-0.152554 0.0155616 -3.49699e-19)
(-0.169854 0.0161806 0)
(-0.187842 0.0167512 3.07376e-19)
(-0.206485 0.0172768 0)
(-0.225751 0.0177607 0)
(-0.245612 0.0182064 -2.56637e-19)
(-0.266041 0.0186173 0)
(-0.287014 0.0189968 -2.29563e-19)
(-0.30851 0.0193481 2.17668e-19)
(-0.330507 0.0196744 0)
(-0.35299 0.0199786 1.96643e-19)
(-0.375942 0.0202633 1.87336e-19)
(-0.399351 0.0205309 0)
(-0.423205 0.0207832 0)
(-0.447494 0.0210217 0)
(-0.47221 0.0212475 0)
(-0.497345 0.0214616 0)
(-0.522891 0.0216644 -1.441e-19)
(-0.548844 0.0218562 0)
(-0.575196 0.0220368 1.33303e-19)
(-0.601942 0.0222058 0)
(-0.629077 0.0223624 0)
(-0.656594 0.0225053 -1.19522e-19)
(-0.684486 0.0226329 0)
(-0.712748 0.022743 1.1166e-19)
(-0.741369 0.0228328 0)
(-0.770342 0.0228991 0)
(-0.799655 0.0229376 0)
(-0.829294 0.0229436 -9.84499e-20)
(-0.859248 0.0229113 0)
(-0.889498 0.0228347 0)
(-0.920027 0.0227081 -9.02945e-20)
(-0.950814 0.022527 0)
(-0.981834 0.0222908 -8.55139e-20)
(-1.01306 0.0220071 0)
(-1.04447 0.0216995 0)
(-1.07604 0.0214195 0)
(-1.10777 0.021267 7.7075e-20)
(-1.13973 0.0214402 0)
(-1.17201 0.0223293 0)
(-1.20455 0.0229466 7.14813e-20)
(-1.23731 0.0228498 6.99346e-20)
(-1.27014 0.0227646 0)
(-1.30309 0.0226936 6.70408e-20)
(-1.33615 0.0226207 0)
(-1.36932 0.0225371 1.28754e-19)
(-1.40257 0.0224387 0)
(-1.43589 0.0223231 1.23831e-19)
(-1.46925 0.0221891 0)
(-1.50261 0.0220358 -1.19266e-19)
(-1.53594 0.0218627 0)
(-1.56923 0.0216697 0)
(-1.60242 0.0214567 0)
(-1.6355 0.0212238 1.11049e-19)
(-1.66842 0.0209712 0)
(-1.70116 0.0206989 -1.07323e-19)
(-1.73368 0.0204071 0)
(-1.76594 0.0200959 1.03808e-19)
(-1.79791 0.0197657 1.0212e-19)
(-1.82956 0.0194167 1.00473e-19)
(-1.86086 0.0190491 0)
(-1.89176 0.018663 0)
(-1.92224 0.0182587 0)
(-1.95225 0.0178361 0)
(-1.98177 0.0173954 0)
(-2.01075 0.016936 0)
(-2.03917 0.0164573 0)
(-2.06697 0.0159585 0)
(-2.09411 0.0154389 -8.69557e-20)
(-2.12057 0.0148981 -8.55415e-20)
(-2.14627 0.0143352 0)
(-2.17119 0.013749 0)
(-2.19527 0.0131381 0)
(-2.21846 0.0125016 -7.99267e-20)
(-2.24069 0.0118392 0)
(-2.26192 0.0111511 0)
(-2.28208 0.0104375 0)
(-2.30111 0.00969917 0)
(-2.31896 0.00893746 7.28117e-20)
(-2.33556 0.00815477 0)
(-2.35087 0.00735417 0)
(-2.36483 0.00653918 -6.8377e-20)
(-2.3774 0.00571389 6.68578e-20)
(-2.38855 0.004883 0)
(-2.39824 0.00405127 6.37451e-20)
(-2.40645 0.00322266 0)
(-2.41318 0.00240008 -6.05197e-20)
(-2.41842 0.00158575 0)
(-2.42216 0.00078362 0)
(-2.42439 5.51114e-06 0)
(-2.42517 -0.000744331 0)
(-2.42452 -0.00147152 0)
(-2.42245 -0.00217892 9.98394e-20)
(-2.41899 -0.00286881 9.60121e-20)
(-2.41415 -0.00354342 0)
(-2.40793 -0.00420546 0)
(-2.40036 -0.00485807 0)
(-2.39142 -0.0055047 -7.97435e-20)
(-2.3811 -0.00614904 0)
(-2.36939 -0.00679471 0)
(-2.35628 -0.00744506 0)
(-2.34172 -0.00810371 -6.16664e-20)
(-2.32568 -0.00877509 5.68116e-20)
(-2.30811 -0.00946401 0)
(-2.28896 -0.010175 0)
(-2.26816 -0.0109122 4.12931e-20)
(-2.24564 -0.0116793 3.57643e-20)
(-2.22131 -0.0124796 0)
(-2.19508 -0.0133166 0)
(-2.16684 -0.0141953 -1.79185e-20)
(-2.1365 -0.01512 1.14961e-20)
(-2.10394 -0.0160928 0)
(-2.06903 -0.0171155 0)
(-2.03165 -0.0181896 -9.45897e-21)
(-1.99167 -0.0193184 0)
(-1.94894 -0.0205061 0)
(-1.90334 -0.0217515 -3.34358e-20)
(-1.85473 -0.0230513 0)
(-1.80297 -0.0244073 -5.14662e-20)
(-1.74795 -0.0258188 0)
(-1.68954 -0.027283 0)
(-1.62761 -0.0287976 0)
(-1.56208 -0.030355 9.36662e-20)
(-1.49285 -0.0319506 0)
(-1.41985 -0.0335839 0)
(-1.34303 -0.0352469 0)
(-1.26235 -0.0369302 0)
(-1.17779 -0.0386252 0)
(-1.08937 -0.0403213 0)
(-0.997119 -0.0420076 1.94698e-19)
(-0.901102 -0.043671 2.12831e-19)
(-0.801412 -0.0452762 0)
(-0.698174 -0.0468181 0)
(-0.591519 -0.0482692 0)
(-0.481753 -0.0495237 -2.96857e-19)
(-0.369219 -0.0506026 0)
(-0.254304 -0.0513517 6.92589e-19)
(-0.138399 -0.0519903 -7.49674e-19)
(-0.0210502 -0.0519569 -8.00199e-19)
(0.0962075 -0.0505361 8.13929e-19)
(0.205092 -0.0469277 -8.0773e-19)
(0.315684 -0.0419605 8.02983e-19)
(0.371804 -0.0246162 0)
(0.000819535 -0.00414149 0)
(0.00371126 -0.00858058 0)
(0.00720482 -0.0106696 8.44508e-19)
(0.0105419 -0.0110937 0)
(0.0134296 -0.0104703 -5.87211e-19)
(0.0157651 -0.00923694 -5.22607e-19)
(0.0175223 -0.00768448 -2.40718e-19)
(0.018703 -0.00600301 -2.28595e-19)
(0.0193163 -0.00431797 0)
(0.0193651 -0.0027025 -2.20828e-19)
(0.0188406 -0.00119228 0)
(0.017734 0.000197508 0)
(0.0160793 0.0014574 4.47707e-19)
(0.0138864 0.00259248 2.26198e-19)
(0.0111637 0.00362394 -4.58115e-19)
(0.00790898 0.00458955 -4.64742e-19)
(0.00411176 0.00553854 -2.36065e-19)
(-0.000309982 0.00653356 0)
(-0.00534424 0.00760539 0)
(-0.0110236 0.00879949 0)
(-0.0173927 0.0101639 -2.12471e-19)
(-0.0244725 0.0117188 0)
(-0.0322712 0.013451 5.80373e-19)
(-0.0407953 0.0153196 0)
(-0.0500435 0.0172826 0)
(-0.0600108 0.019315 1.64356e-19)
(-0.0706926 0.0213925 0)
(-0.082077 0.0234861 -1.46205e-19)
(-0.0941493 0.0255668 -2.75425e-19)
(-0.106893 0.0276086 1.29743e-19)
(-0.120291 0.0295893 0)
(-0.134323 0.0314916 0)
(-0.14897 0.0333027 0)
(-0.164211 0.035014 -2.04887e-19)
(-0.180025 0.0366206 -1.93503e-19)
(-0.196389 0.0381208 -9.14976e-20)
(-0.213284 0.0395156 0)
(-0.230687 0.0408078 1.6408e-19)
(-0.24858 0.0420017 0)
(-0.266943 0.0431029 -1.47789e-19)
(-0.285761 0.0441173 0)
(-0.305017 0.0450514 0)
(-0.324697 0.0459117 1.2743e-19)
(-0.344789 0.0467048 0)
(-0.365281 0.047437 3.48143e-19)
(-0.386165 0.0481145 -1.10994e-19)
(-0.407431 0.0487431 0)
(-0.429072 0.0493283 -1.01774e-19)
(-0.451084 0.0498749 -9.76046e-20)
(-0.473462 0.0503874 0)
(-0.496202 0.0508694 0)
(-0.519302 0.0513241 0)
(-0.542759 0.051754 0)
(-0.566573 0.0521612 0)
(-0.590741 0.0525475 7.74619e-20)
(-0.615262 0.052914 1.4936e-19)
(-0.640136 0.0532618 -7.22236e-20)
(-0.66536 0.0535913 0)
(-0.690934 0.0539028 1.34945e-19)
(-0.716856 0.0541963 -6.52433e-20)
(-0.743123 0.0544715 0)
(-0.769734 0.0547279 -6.1494e-20)
(-0.796685 0.0549652 0)
(-0.823973 0.0551827 0)
(-0.851593 0.0553798 -1.12554e-19)
(-0.879541 0.0555555 5.48465e-20)
(-0.907812 0.0557089 -1.06622e-19)
(-0.936401 0.0558388 1.03898e-19)
(-0.965303 0.055944 5.07574e-20)
(-0.994515 0.0560227 0)
(-1.02403 0.0560723 4.83903e-20)
(-1.05385 0.056089 0)
(-1.08397 0.056067 0)
(-1.11437 0.055997 0)
(-1.14504 0.055864 4.41115e-20)
(-1.17594 0.055656 0)
(-1.20696 0.0553968 8.45207e-20)
(-1.23805 0.0551386 -1.23951e-19)
(-1.26932 0.0548842 -4.04435e-20)
(-1.3008 0.0546404 0)
(-1.33242 0.0543932 -3.86695e-20)
(-1.36415 0.0541262 0)
(-1.39597 0.0538291 -7.40472e-20)
(-1.42784 0.0534957 0)
(-1.45976 0.0531224 -7.09889e-20)
(-1.49167 0.0527071 1.38678e-19)
(-1.52357 0.0522486 6.81396e-20)
(-1.55542 0.0517459 0)
(-1.58718 0.0511991 0)
(-1.61884 0.0506082 0)
(-1.65035 0.0499738 -6.29806e-20)
(-1.68168 0.0492963 0)
(-1.71281 0.0485764 6.06318e-20)
(-1.7437 0.0478149 0)
(-1.77432 0.0470125 -1.74869e-19)
(-1.80463 0.0461702 -5.7347e-20)
(-1.83461 0.0452891 -5.63073e-20)
(-1.86421 0.04437 0)
(-1.8934 0.0434136 0)
(-1.92216 0.0424205 0)
(-1.95044 0.0413912 0)
(-1.97821 0.0403259 0)
(-2.00543 0.0392239 -1.00706e-19)
(-2.03207 0.0380843 -9.88936e-20)
(-2.0581 0.036906 0)
(-2.08345 0.0356877 4.78082e-20)
(-2.10811 0.0344281 4.69247e-20)
(-2.13201 0.0331255 0)
(-2.15512 0.0317777 9.00958e-20)
(-2.17738 0.0303822 0)
(-2.19874 0.0289372 -4.32071e-20)
(-2.21915 0.0274417 0)
(-2.23855 0.0258957 0)
(-2.25688 0.0242995 8.14444e-20)
(-2.27409 0.0226543 0)
(-2.29011 0.0209632 -3.90482e-20)
(-2.30489 0.0192306 0)
(-2.31838 0.0174629 0)
(-2.33053 0.0156675 -3.62592e-20)
(-2.34128 0.0138529 -3.54423e-20)
(-2.35061 0.012029 0)
(-2.35848 0.0102057 3.35458e-20)
(-2.36487 0.00839193 0)
(-2.36976 0.00659475 -3.16863e-20)
(-2.37314 0.00481859 -6.14655e-20)
(-2.37498 0.00307216 0)
(-2.37533 0.001376 0)
(-2.37421 -0.000258743 0)
(-2.37163 -0.00183833 0)
(-2.36761 -0.00336885 -5.12443e-20)
(-2.36217 -0.00485577 -1.47558e-19)
(-2.35531 -0.00630453 0)
(-2.34703 -0.00772106 0)
(-2.33734 -0.00911177 0)
(-2.32623 -0.0104834 4.02079e-20)
(-2.31367 -0.011843 0)
(-2.29966 -0.0131975 0)
(-2.28415 -0.0145539 -6.66414e-20)
(-2.26712 -0.0159196 -3.11188e-20)
(-2.24852 -0.0173027 -2.80891e-20)
(-2.2283 -0.0187113 0)
(-2.2064 -0.0201531 0)
(-2.18275 -0.0216359 -2.01488e-20)
(-2.15726 -0.0231675 1.80781e-20)
(-2.12987 -0.0247537 0)
(-2.10046 -0.0263993 0)
(-2.06894 -0.0281102 8.56864e-21)
(-2.0352 -0.0298927 -1.73088e-20)
(-1.99913 -0.0317501 0)
(-1.96062 -0.0336844 0)
(-1.91953 -0.0356974 4.41406e-21)
(-1.87574 -0.0377898 0)
(-1.82912 -0.0399634 2.18452e-20)
(-1.77955 -0.0422169 -1.39781e-20)
(-1.72689 -0.044543 0)
(-1.67104 -0.0469362 2.30883e-20)
(-1.61186 -0.0493914 5.28884e-20)
(-1.54927 -0.0519025 0)
(-1.48315 -0.0544603 0)
(-1.41342 -0.057048 -4.03141e-20)
(-1.34003 -0.0596539 0)
(-1.2629 -0.0622717 9.76007e-20)
(-1.18201 -0.0648812 0)
(-1.09734 -0.0674662 0)
(-1.00891 -0.07001 0)
(-0.916749 -0.072493 0)
(-0.820929 -0.0748988 -7.57254e-20)
(-0.721532 -0.0772103 -8.13142e-20)
(-0.618685 -0.079384 0)
(-0.512545 -0.081428 0)
(-0.403275 -0.0833293 0)
(-0.291137 -0.0849945 1.04826e-19)
(-0.176314 -0.0864825 0)
(-0.0592469 -0.0874295 -2.33076e-19)
(0.0599457 -0.087688 2.39744e-19)
(0.178202 -0.0867371 2.42627e-19)
(0.295536 -0.0839538 2.4105e-19)
(0.407454 -0.0786367 2.4955e-19)
(0.518723 -0.0699496 2.49569e-19)
(0.601947 -0.0504433 0)
(0.00100074 -0.00926542 0)
(0.00377481 -0.0157602 0)
(0.00634607 -0.0172338 -6.31365e-19)
(0.00837782 -0.0164014 -5.0169e-19)
(0.00982534 -0.0144448 4.33274e-19)
(0.0106715 -0.0119155 3.95207e-19)
(0.0109196 -0.00911814 8.43188e-24)
(0.0105643 -0.00622738 0)
(0.00959403 -0.00334038 0)
(0.00797108 -0.000507807 0)
(0.00572684 0.00220698 0)
(0.0029007 0.00475909 0)
(-0.000537828 0.0071618 -1.0542e-18)
(-0.00455881 0.00940719 0)
(-0.00916832 0.0115422 3.33859e-19)
(-0.0143769 0.0136294 3.23837e-19)
(-0.020193 0.0157263 0)
(-0.0266271 0.0178762 0)
(-0.0336853 0.0201162 0)
(-0.0413707 0.0224804 0)
(-0.0496733 0.0249852 2.66212e-19)
(-0.0585746 0.0276277 0)
(-0.0680533 0.0303897 -2.41707e-19)
(-0.0780901 0.0332425 0)
(-0.088669 0.0361544 0)
(-0.0997746 0.0390952 0)
(-0.111391 0.0420358 -3.9207e-19)
(-0.123503 0.0449476 0)
(-0.136095 0.0478037 1.76086e-19)
(-0.149156 0.0505802 -3.33738e-19)
(-0.162671 0.0532565 0)
(-0.176632 0.0558165 0)
(-0.191029 0.0582481 0)
(-0.205851 0.0605435 1.3535e-19)
(-0.221091 0.0626985 1.28668e-19)
(-0.23674 0.0647125 0)
(-0.252791 0.0665875 0)
(-0.269236 0.0683279 -2.22188e-19)
(-0.28607 0.0699398 -2.11982e-19)
(-0.303285 0.0714305 2.02441e-19)
(-0.320878 0.0728082 0)
(-0.338843 0.0740814 0)
(-0.357175 0.0752588 0)
(-0.375873 0.0763491 0)
(-0.394931 0.0773608 -1.63221e-19)
(-0.414348 0.078302 -1.56734e-19)
(-0.434122 0.0791803 1.50692e-19)
(-0.454251 0.0800028 0)
(-0.474733 0.0807755 0)
(-0.495567 0.0815041 0)
(-0.516754 0.0821931 0)
(-0.538292 0.0828463 -1.25462e-19)
(-0.560182 0.0834669 0)
(-0.582423 0.0840573 0)
(-0.605014 0.0846194 -1.13514e-19)
(-0.627956 0.0851545 -1.10021e-19)
(-0.651248 0.0856632 0)
(-0.67489 0.0861458 2.06778e-19)
(-0.698879 0.0866021 -1.00428e-19)
(-0.723216 0.0870312 9.75514e-20)
(-0.747899 0.0874321 0)
(-0.772925 0.0878036 0)
(-0.798293 0.0881439 0)
(-0.823999 0.0884515 0)
(-0.850038 0.0887241 8.51531e-20)
(-0.876408 0.0889598 1.65873e-19)
(-0.903103 0.0891563 8.0973e-20)
(-0.930117 0.0893115 -7.90218e-20)
(-0.957445 0.0894238 0)
(-0.985081 0.0894925 1.50562e-19)
(-1.01302 0.0895175 1.4712e-19)
(-1.04124 0.0895007 1.43805e-19)
(-1.06975 0.0894454 -1.40601e-19)
(-1.09854 0.0893568 0)
(-1.12758 0.0892414 -2.0178e-19)
(-1.15685 0.0891061 0)
(-1.1863 0.0889453 6.41683e-20)
(-1.21589 0.0887033 6.28835e-20)
(-1.24564 0.0883692 0)
(-1.27555 0.0879805 0)
(-1.30558 0.0875442 1.17337e-19)
(-1.33571 0.0870564 0)
(-1.36591 0.0865113 1.12297e-19)
(-1.39616 0.0859043 0)
(-1.42644 0.0852319 -1.07589e-19)
(-1.45671 0.0844916 -2.10881e-19)
(-1.48696 0.0836818 0)
(-1.51714 0.0828019 0)
(-1.54723 0.0818517 0)
(-1.57721 0.0808315 -9.70656e-20)
(-1.60703 0.0797422 0)
(-1.63667 0.0785845 -9.32768e-20)
(-1.6661 0.0773596 0)
(-1.69529 0.0760687 0)
(-1.72419 0.0747133 1.76089e-19)
(-1.75279 0.0732951 0)
(-1.78105 0.0718158 8.46281e-20)
(-1.80894 0.0702766 0)
(-1.83642 0.068679 8.1436e-20)
(-1.86346 0.0670239 0)
(-1.89003 0.065312 0)
(-1.9161 0.0635433 0)
(-1.94162 0.0617171 2.26301e-19)
(-1.96657 0.059832 7.4065e-20)
(-1.99091 0.0578866 0)
(-2.01459 0.0558788 0)
(-2.03758 0.0538065 0)
(-2.05983 0.0516666 0)
(-2.0813 0.0494557 -6.69521e-20)
(-2.10193 0.0471706 1.30901e-19)
(-2.12169 0.0448087 6.41577e-20)
(-2.14051 0.0423686 -1.25349e-19)
(-2.15834 0.0398494 -1.22574e-19)
(-2.17513 0.0372518 -5.99725e-20)
(-2.19081 0.0345779 0)
(-2.20532 0.0318324 -1.14225e-19)
(-2.21862 0.0290226 0)
(-2.23065 0.0261577 1.08614e-19)
(-2.24136 0.0232495 5.2926e-20)
(-2.25069 0.0203114 0)
(-2.25862 0.0173583 -1.00095e-19)
(-2.2651 0.0144051 -4.86147e-20)
(-2.27012 0.0114657 0)
(-2.27365 0.00855135 -4.57225e-20)
(-2.27567 0.00567049 1.32689e-19)
(-2.27617 0.00284907 0)
(-2.27521 0.00011763 0)
(-2.2728 -0.00252016 0)
(-2.26893 -0.00507286 0)
(-2.26364 -0.00754948 7.30859e-20)
(-2.25693 -0.00995901 6.97715e-20)
(-2.2488 -0.0123108 0)
(-2.23926 -0.0146149 0)
(-2.22829 -0.0168815 0)
(-2.21588 -0.0191214 0)
(-2.20202 -0.0213454 0)
(-2.18667 -0.0235645 0)
(-2.16982 -0.0257899 4.64008e-20)
(-2.15141 -0.0280338 -3.08175e-22)
(-2.13141 -0.0303089 0)
(-2.10976 -0.032627 0)
(-2.08638 -0.0349995 3.22962e-20)
(-2.06123 -0.037438 0)
(-2.0342 -0.0399544 -2.42729e-20)
(-2.00523 -0.0425585 -2.07954e-20)
(-1.9742 -0.0452579 0)
(-1.94103 -0.0480595 0)
(-1.9056 -0.0509704 8.00846e-21)
(-1.8678 -0.0539949 8.59623e-21)
(-1.82752 -0.057136 0)
(-1.78464 -0.0603965 0)
(-1.73904 -0.063776 0)
(-1.69058 -0.0672726 -1.45102e-20)
(-1.63916 -0.0708827 1.93438e-20)
(-1.58464 -0.0745959 0)
(-1.52691 -0.0783995 5.70135e-20)
(-1.46587 -0.0822824 3.27522e-20)
(-1.40142 -0.0862342 -7.78165e-20)
(-1.33346 -0.0902373 0)
(-1.26192 -0.0942647 0)
(-1.18675 -0.0982956 -1.10741e-19)
(-1.10789 -0.102318 -6.21963e-20)
(-1.02532 -0.106294 0)
(-0.939034 -0.1102 0)
(-0.84906 -0.114007 0)
(-0.75544 -0.117681 0)
(-0.658248 -0.121196 -1.81917e-19)
(-0.557575 -0.124527 0)
(-0.453558 -0.127618 0)
(-0.346345 -0.130486 0)
(-0.236161 -0.133111 0)
(-0.123169 -0.135397 0)
(-0.00758734 -0.137196 0)
(0.109025 -0.138016 -2.62198e-19)
(0.22594 -0.13766 0)
(0.341896 -0.135581 0)
(0.456709 -0.131321 -5.57665e-19)
(0.567496 -0.123917 2.82934e-19)
(0.678247 -0.112518 -2.9144e-19)
(0.772662 -0.0915149 3.00233e-19)
(0.000877081 -0.0137075 0)
(0.00262251 -0.020383 1.46192e-18)
(0.00367714 -0.020542 0)
(0.0041121 -0.0183937 4.09327e-19)
(0.00393601 -0.015169 0)
(0.00312949 -0.0113909 0)
(0.00169977 -0.00732971 -3.23119e-19)
(-0.000363001 -0.00312555 0)
(-0.00307574 0.00108379 0)
(-0.00633692 0.00514379 0)
(-0.0101318 0.00899446 0)
(-0.0144519 0.0126317 0)
(-0.0192935 0.0160733 1.03977e-18)
(-0.0246598 0.0193523 5.02851e-19)
(-0.0305602 0.0225191 -4.86064e-19)
(-0.036998 0.0256273 0)
(-0.0439715 0.028726 0)
(-0.0514743 0.0318541 0)
(-0.0594968 0.035041 0)
(-0.068024 0.0383065 0)
(-0.077035 0.0416576 3.83111e-19)
(-0.0865066 0.0450887 3.66055e-19)
(-0.0964152 0.0485841 -3.49342e-19)
(-0.10674 0.0521211 3.33086e-19)
(-0.117464 0.0556736 0)
(-0.128572 0.0592151 0)
(-0.140051 0.0627196 2.87863e-19)
(-0.15189 0.0661623 0)
(-0.16408 0.0695204 0)
(-0.176615 0.0727736 2.48659e-19)
(-0.189491 0.0759049 2.36953e-19)
(-0.202703 0.078901 2.25952e-19)
(-0.216252 0.0817521 0)
(-0.230135 0.0844522 0)
(-0.244353 0.0869986 -1.96741e-19)
(-0.258907 0.0893916 0)
(-0.273797 0.0916343 0)
(-0.289024 0.0937317 1.72598e-19)
(-0.304589 0.0956906 -1.65487e-19)
(-0.320492 0.0975188 1.58841e-19)
(-0.336736 0.099225 0)
(-0.353321 0.100818 0)
(-0.370247 0.102307 2.8245e-19)
(-0.387515 0.103702 0)
(-0.405126 0.105011 2.6227e-19)
(-0.42308 0.106242 3.79569e-19)
(-0.441376 0.107404 -3.66495e-19)
(-0.460015 0.108504 2.36084e-19)
(-0.478998 0.109548 0)
(-0.498324 0.110541 0)
(-0.517993 0.11149 2.13915e-19)
(-0.538006 0.112397 1.03654e-19)
(-0.558362 0.113265 0)
(-0.579061 0.114098 0)
(-0.600103 0.114897 9.46452e-20)