# Field minima and maxima
# Time       	field        	min          	position(min)	processor    	max          	position(max)	processor    
0.00119048   	U            	0.000000e+00	(-1.100056e-02 -1.100056e-02 0.000000e+00)	0	1.000000e-01	(-7.333707e-03 -7.333707e-03 0.000000e+00)	0
0.00261054   	U            	0.000000e+00	(-1.100056e-02 -1.100056e-02 0.000000e+00)	0	1.000000e-01	(-7.333707e-03 -7.333707e-03 0.000000e+00)	0
0.00431218   	U            	0.000000e+00	(-1.100056e-02 -1.100056e-02 0.000000e+00)	0	1.000000e-01	(-7.333707e-03 -7.333707e-03 0.000000e+00)	0
0.00635059   	U            	0.000000e+00	(-1.100056e-02 -1.100056e-02 0.000000e+00)	0	1.000000e-01	(-7.333707e-03 -7.333707e-03 0.000000e+00)	0
0.00877121   	U            	0.000000e+00	(-1.100056e-02 -1.100056e-02 0.000000e+00)	0	1.000000e-01	(-7.333707e-03 -7.333707e-03 0.000000e+00)	0
0.0116686    	U            	0.000000e+00	(-1.100056e-02 -1.100056e-02 0.000000e+00)	0	1.000000e-01	(-7.333707e-03 -7.333707e-03 0.000000e+00)	0
0.0150928    	U            	0.000000e+00	(-1.100056e-02 -1.100056e-02 0.000000e+00)	0	1.000000e-01	(-7.333707e-03 -7.333707e-03 0.000000e+00)	0
0.0191125    	U            	0.000000e+00	(-1.100056e-02 -1.100056e-02 0.000000e+00)	0	1.000000e-01	(-7.333707e-03 -7.333707e-03 0.000000e+00)	0
0.0238727    	U            	0.000000e+00	(-1.100056e-02 -1.100056e-02 0.000000e+00)	0	1.000000e-01	(-7.333707e-03 -7.333707e-03 0.000000e+00)	0
0.0295543    	U            	0.000000e+00	(-1.100056e-02 -1.100056e-02 0.000000e+00)	0	1.000000e-01	(-7.333707e-03 -7.333707e-03 0.000000e+00)	0
0.0361099    	U            	0.000000e+00	(-1.100056e-02 -1.100056e-02 0.000000e+00)	0	1.000000e-01	(-7.333707e-03 -7.333707e-03 0.000000e+00)	0
0.0439142    	U            	0.000000e+00	(-1.100056e-02 -1.100056e-02 0.000000e+00)	0	1.000000e-01	(-7.333707e-03 -7.333707e-03 0.000000e+00)	0
0.0530957    	U            	0.000000e+00	(-1.100056e-02 -1.100056e-02 0.000000e+00)	0	1.000000e-01	(-7.333707e-03 -7.333707e-03 0.000000e+00)	0
0.0628893    	U            	0.000000e+00	(-1.100056e-02 -1.100056e-02 0.000000e+00)	0	1.000000e-01	(-7.333707e-03 -7.333707e-03 0.000000e+00)	0
0.0726829    	U            	0.000000e+00	(-1.100056e-02 -1.100056e-02 0.000000e+00)	0	1.000000e-01	(-7.333707e-03 -7.333707e-03 0.000000e+00)	0
0.0824765    	U            	0.000000e+00	(-1.100056e-02 -1.100056e-02 0.000000e+00)	0	1.000000e-01	(-7.333707e-03 -7.333707e-03 0.000000e+00)	0
0.0922702    	U            	0.000000e+00	(-1.100056e-02 -1.100056e-02 0.000000e+00)	0	1.000000e-01	(-7.333707e-03 -7.333707e-03 0.000000e+00)	0
0.102064     	U            	0.000000e+00	(-1.100056e-02 -1.100056e-02 0.000000e+00)	0	1.000000e-01	(-7.333707e-03 -7.333707e-03 0.000000e+00)	0
0.111857     	U            	0.000000e+00	(-1.100056e-02 -1.100056e-02 0.000000e+00)	0	1.000000e-01	(-7.333707e-03 -7.333707e-03 0.000000e+00)	0
0.121651     	U            	0.000000e+00	(-1.100056e-02 -1.100056e-02 0.000000e+00)	0	1.000000e-01	(-7.333707e-03 -7.333707e-03 0.000000e+00)	0
0.131445     	U            	0.000000e+00	(-1.100056e-02 -1.100056e-02 0.000000e+00)	0	1.000000e-01	(-7.333707e-03 -7.333707e-03 0.000000e+00)	0
0.141238     	U            	0.000000e+00	(-1.100056e-02 -1.100056e-02 0.000000e+00)	0	1.000000e-01	(-7.333707e-03 -7.333707e-03 0.000000e+00)	0
0.151032     	U            	0.000000e+00	(-1.100056e-02 -1.100056e-02 0.000000e+00)	0	1.000000e-01	(-7.333707e-03 -7.333707e-03 0.000000e+00)	0
0.160826     	U            	0.000000e+00	(-1.100056e-02 -1.100056e-02 0.000000e+00)	0	1.000000e-01	(-7.333707e-03 -7.333707e-03 0.000000e+00)	0
0.170619     	U            	0.000000e+00	(-1.100056e-02 -1.100056e-02 0.000000e+00)	0	1.000000e-01	(-7.333707e-03 -7.333707e-03 0.000000e+00)	0
0.180413     	U            	0.000000e+00	(-1.100056e-02 -1.100056e-02 0.000000e+00)	0	1.000000e-01	(-7.333707e-03 -7.333707e-03 0.000000e+00)	0
0.190206     	U            	0.000000e+00	(-1.100056e-02 -1.100056e-02 0.000000e+00)	0	1.000000e-01	(-7.333707e-03 -7.333707e-03 0.000000e+00)	0
0.2          	U            	0.000000e+00	(-1.100056e-02 -1.100056e-02 0.000000e+00)	0	1.000000e-01	(-7.333707e-03 -7.333707e-03 0.000000e+00)	0
0.209524     	U            	0.000000e+00	(-1.100056e-02 -1.100056e-02 0.000000e+00)	0	1.000000e-01	(-7.333707e-03 -7.333707e-03 0.000000e+00)	0
0.219048     	U            	0.000000e+00	(-1.100056e-02 -1.100056e-02 0.000000e+00)	0	1.000000e-01	(-7.333707e-03 -7.333707e-03 0.000000e+00)	0
0.228571     	U            	0.000000e+00	(-1.100056e-02 -1.100056e-02 0.000000e+00)	0	1.000000e-01	(-7.333707e-03 -7.333707e-03 0.000000e+00)	0
0.238095     	U            	0.000000e+00	(-1.100056e-02 -1.100056e-02 0.000000e+00)	0	1.000000e-01	(-7.333707e-03 -7.333707e-03 0.000000e+00)	0
0.247619     	U            	0.000000e+00	(-1.100056e-02 -1.100056e-02 0.000000e+00)	0	1.000000e-01	(-7.333707e-03 -7.333707e-03 0.000000e+00)	0
0.257143     	U            	0.000000e+00	(-1.100056e-02 -1.100056e-02 0.000000e+00)	0	1.000000e-01	(-7.333707e-03 -7.333707e-03 0.000000e+00)	0
0.266667     	U            	0.000000e+00	(-1.100056e-02 -1.100056e-02 0.000000e+00)	0	1.000000e-01	(-7.333707e-03 -7.333707e-03 0.000000e+00)	0
0.27619      	U            	0.000000e+00	(-1.100056e-02 -1.100056e-02 0.000000e+00)	0	1.000000e-01	(-7.333707e-03 -7.333707e-03 0.000000e+00)	0
0.285714     	U            	0.000000e+00	(-1.100056e-02 -1.100056e-02 0.000000e+00)	0	1.000000e-01	(-7.333707e-03 -7.333707e-03 0.000000e+00)	0
0.295238     	U            	0.000000e+00	(-1.100056e-02 -1.100056e-02 0.000000e+00)	0	1.000000e-01	(-7.333707e-03 -7.333707e-03 0.000000e+00)	0
0.304762     	U            	0.000000e+00	(-1.100056e-02 -1.100056e-02 0.000000e+00)	0	1.000000e-01	(-7.333707e-03 -7.333707e-03 0.000000e+00)	0
0.314286     	U            	0.000000e+00	(-1.100056e-02 -1.100056e-02 0.000000e+00)	0	1.000000e-01	(-7.333707e-03 -7.333707e-03 0.000000e+00)	0
0.32381      	U            	0.000000e+00	(-1.100056e-02 -1.100056e-02 0.000000e+00)	0	1.000000e-01	(-7.333707e-03 -7.333707e-03 0.000000e+00)	0
0.333333     	U            	0.000000e+00	(-1.100056e-02 -1.100056e-02 0.000000e+00)	0	1.000000e-01	(-7.333707e-03 -7.333707e-03 0.000000e+00)	0
0.342857     	U            	0.000000e+00	(-1.100056e-02 -1.100056e-02 0.000000e+00)	0	1.000000e-01	(-7.333707e-03 -7.333707e-03 0.000000e+00)	0
0.352381     	U            	0.000000e+00	(-1.100056e-02 -1.100056e-02 0.000000e+00)	0	1.000000e-01	(-7.333707e-03 -7.333707e-03 0.000000e+00)	0
0.361905     	U            	0.000000e+00	(-1.100056e-02 -1.100056e-02 0.000000e+00)	0	1.000000e-01	(-7.333707e-03 -7.333707e-03 0.000000e+00)	0
0.371429     	U            	0.000000e+00	(-1.100056e-02 -1.100056e-02 0.000000e+00)	0	1.000000e-01	(-7.333707e-03 -7.333707e-03 0.000000e+00)	0
0.380952     	U            	0.000000e+00	(-1.100056e-02 -1.100056e-02 0.000000e+00)	0	1.000000e-01	(-7.333707e-03 -7.333707e-03 0.000000e+00)	0
0.390476     	U            	0.000000e+00	(-1.100056e-02 -1.100056e-02 0.000000e+00)	0	1.000000e-01	(-7.333707e-03 -7.333707e-03 0.000000e+00)	0
0.4          	U            	0.000000e+00	(-1.100056e-02 -1.100056e-02 0.000000e+00)	0	1.000000e-01	(-7.333707e-03 -7.333707e-03 0.000000e+00)	0
0.409524     	U            	0.000000e+00	(-1.100056e-02 -1.100056e-02 0.000000e+00)	0	1.000000e-01	(-7.333707e-03 -7.333707e-03 0.000000e+00)	0
0.419048     	U            	0.000000e+00	(-1.100056e-02 -1.100056e-02 0.000000e+00)	0	1.000000e-01	(-7.333707e-03 -7.333707e-03 0.000000e+00)	0
0.428571     	U            	0.000000e+00	(-1.100056e-02 -1.100056e-02 0.000000e+00)	0	1.000000e-01	(-7.333707e-03 -7.333707e-03 0.000000e+00)	0
0.438095     	U            	0.000000e+00	(-1.100056e-02 -1.100056e-02 0.000000e+00)	0	1.000000e-01	(-7.333707e-03 -7.333707e-03 0.000000e+00)	0
0.447619     	U            	0.000000e+00	(-1.100056e-02 -1.100056e-02 0.000000e+00)	0	1.000000e-01	(-7.333707e-03 -7.333707e-03 0.000000e+00)	0
0.457143     	U            	0.000000e+00	(-1.100056e-02 -1.100056e-02 0.000000e+00)	0	1.000000e-01	(-7.333707e-03 -7.333707e-03 0.000000e+00)	0
0.466667     	U            	0.000000e+00	(-1.100056e-02 -1.100056e-02 0.000000e+00)	0	1.000000e-01	(-7.333707e-03 -7.333707e-03 0.000000e+00)	0
0.47619      	U            	0.000000e+00	(-1.100056e-02 -1.100056e-02 0.000000e+00)	0	1.000000e-01	(-7.333707e-03 -7.333707e-03 0.000000e+00)	0
0.485714     	U            	0.000000e+00	(-1.100056e-02 -1.100056e-02 0.000000e+00)	0	1.000000e-01	(-7.333707e-03 -7.333707e-03 0.000000e+00)	0
0.495238     	U            	0.000000e+00	(-1.100056e-02 -1.100056e-02 0.000000e+00)	0	1.000000e-01	(-7.333707e-03 -7.333707e-03 0.000000e+00)	0
0.504762     	U            	0.000000e+00	(-1.100056e-02 -1.100056e-02 0.000000e+00)	0	1.000000e-01	(-7.333707e-03 -7.333707e-03 0.000000e+00)	0
0.514286     	U            	0.000000e+00	(-1.100056e-02 -1.100056e-02 0.000000e+00)	0	1.000000e-01	(-7.333707e-03 -7.333707e-03 0.000000e+00)	0
0.52381      	U            	0.000000e+00	(-1.100056e-02 -1.100056e-02 0.000000e+00)	0	1.000000e-01	(-7.333707e-03 -7.333707e-03 0.000000e+00)	0
0.533333     	U            	0.000000e+00	(-1.100056e-02 -1.100056e-02 0.000000e+00)	0	1.000000e-01	(-7.333707e-03 -7.333707e-03 0.000000e+00)	0
0.542857     	U            	0.000000e+00	(-1.100056e-02 -1.100056e-02 0.000000e+00)	0	1.000000e-01	(-7.333707e-03 -7.333707e-03 0.000000e+00)	0
0.552381     	U            	0.000000e+00	(-1.100056e-02 -1.100056e-02 0.000000e+00)	0	1.000000e-01	(-7.333707e-03 -7.333707e-03 0.000000e+00)	0
0.561905     	U            	0.000000e+00	(-1.100056e-02 -1.100056e-02 0.000000e+00)	0	1.000000e-01	(-7.333707e-03 -7.333707e-03 0.000000e+00)	0
0.571429     	U            	0.000000e+00	(-1.100056e-02 -1.100056e-02 0.000000e+00)	0	1.000000e-01	(-7.333707e-03 -7.333707e-03 0.000000e+00)	0
0.580952     	U            	0.000000e+00	(-1.100056e-02 -1.100056e-02 0.000000e+00)	0	1.000000e-01	(-7.333707e-03 -7.333707e-03 0.000000e+00)	0
0.590476     	U            	0.000000e+00	(-1.100056e-02 -1.100056e-02 0.000000e+00)	0	1.000000e-01	(-7.333707e-03 -7.333707e-03 0.000000e+00)	0
0.6          	U            	0.000000e+00	(-1.100056e-02 -1.100056e-02 0.000000e+00)	0	1.000000e-01	(-7.333707e-03 -7.333707e-03 0.000000e+00)	0
0.61         	U            	0.000000e+00	(-1.100056e-02 -1.100056e-02 0.000000e+00)	0	1.000000e-01	(-7.333707e-03 -7.333707e-03 0.000000e+00)	0
0.62         	U            	0.000000e+00	(-1.100056e-02 -1.100056e-02 0.000000e+00)	0	1.000000e-01	(-7.333707e-03 -7.333707e-03 0.000000e+00)	0
0.63         	U            	0.000000e+00	(-1.100056e-02 -1.100056e-02 0.000000e+00)	0	1.000000e-01	(-7.333707e-03 -7.333707e-03 0.000000e+00)	0
0.64         	U            	0.000000e+00	(-1.100056e-02 -1.100056e-02 0.000000e+00)	0	1.000000e-01	(-7.333707e-03 -7.333707e-03 0.000000e+00)	0
0.65         	U            	0.000000e+00	(-1.100056e-02 -1.100056e-02 0.000000e+00)	0	1.000000e-01	(-7.333707e-03 -7.333707e-03 0.000000e+00)	0
0.66         	U            	0.000000e+00	(-1.100056e-02 -1.100056e-02 0.000000e+00)	0	1.000000e-01	(-7.333707e-03 -7.333707e-03 0.000000e+00)	0
0.67         	U            	0.000000e+00	(-1.100056e-02 -1.100056e-02 0.000000e+00)	0	1.000000e-01	(-7.333707e-03 -7.333707e-03 0.000000e+00)	0
0.68         	U            	0.000000e+00	(-1.100056e-02 -1.100056e-02 0.000000e+00)	0	1.000000e-01	(-7.333707e-03 -7.333707e-03 0.000000e+00)	0
0.69         	U            	0.000000e+00	(-1.100056e-02 -1.100056e-02 0.000000e+00)	0	1.000000e-01	(-7.333707e-03 -7.333707e-03 0.000000e+00)	0
0.7          	U            	0.000000e+00	(-1.100056e-02 -1.100056e-02 0.000000e+00)	0	1.000000e-01	(-7.333707e-03 -7.333707e-03 0.000000e+00)	0
0.71         	U            	0.000000e+00	(-1.100056e-02 -1.100056e-02 0.000000e+00)	0	1.000000e-01	(-7.333707e-03 -7.333707e-03 0.000000e+00)	0
0.72         	U            	0.000000e+00	(-1.100056e-02 -1.100056e-02 0.000000e+00)	0	1.000000e-01	(-7.333707e-03 -7.333707e-03 0.000000e+00)	0
0.73         	U            	0.000000e+00	(-1.100056e-02 -1.100056e-02 0.000000e+00)	0	1.000000e-01	(-7.333707e-03 -7.333707e-03 0.000000e+00)	0
0.74         	U            	0.000000e+00	(-1.100056e-02 -1.100056e-02 0.000000e+00)	0	1.000000e-01	(-7.333707e-03 -7.333707e-03 0.000000e+00)	0
0.75         	U            	0.000000e+00	(-1.100056e-02 -1.100056e-02 0.000000e+00)	0	1.000000e-01	(-7.333707e-03 -7.333707e-03 0.000000e+00)	0
0.76         	U            	0.000000e+00	(-1.100056e-02 -1.100056e-02 0.000000e+00)	0	1.000000e-01	(-7.333707e-03 -7.333707e-03 0.000000e+00)	0
0.77         	U            	0.000000e+00	(-1.100056e-02 -1.100056e-02 0.000000e+00)	0	1.000000e-01	(-7.333707e-03 -7.333707e-03 0.000000e+00)	0
0.78         	U            	0.000000e+00	(-1.100056e-02 -1.100056e-02 0.000000e+00)	0	1.000000e-01	(-7.333707e-03 -7.333707e-03 0.000000e+00)	0
0.79         	U            	0.000000e+00	(-1.100056e-02 -1.100056e-02 0.000000e+00)	0	1.000000e-01	(-7.333707e-03 -7.333707e-03 0.000000e+00)	0
0.8          	U            	0.000000e+00	(-1.100056e-02 -1.100056e-02 0.000000e+00)	0	1.000000e-01	(-7.333707e-03 -7.333707e-03 0.000000e+00)	0
0.81         	U            	0.000000e+00	(-1.100056e-02 -1.100056e-02 0.000000e+00)	0	1.000000e-01	(-7.333707e-03 -7.333707e-03 0.000000e+00)	0
0.82         	U            	0.000000e+00	(-1.100056e-02 -1.100056e-02 0.000000e+00)	0	1.000000e-01	(-7.333707e-03 -7.333707e-03 0.000000e+00)	0
0.83         	U            	0.000000e+00	(-1.100056e-02 -1.100056e-02 0.000000e+00)	0	1.000000e-01	(-7.333707e-03 -7.333707e-03 0.000000e+00)	0
0.84         	U            	0.000000e+00	(-1.100056e-02 -1.100056e-02 0.000000e+00)	0	1.000000e-01	(-7.333707e-03 -7.333707e-03 0.000000e+00)	0
0.85         	U            	0.000000e+00	(-1.100056e-02 -1.100056e-02 0.000000e+00)	0	1.000000e-01	(-7.333707e-03 -7.333707e-03 0.000000e+00)	0
0.86         	U            	0.000000e+00	(-1.100056e-02 -1.100056e-02 0.000000e+00)	0	1.000000e-01	(-7.333707e-03 -7.333707e-03 0.000000e+00)	0
0.87         	U            	0.000000e+00	(-1.100056e-02 -1.100056e-02 0.000000e+00)	0	1.000000e-01	(-7.333707e-03 -7.333707e-03 0.000000e+00)	0
0.88         	U            	0.000000e+00	(-1.100056e-02 -1.100056e-02 0.000000e+00)	0	1.000000e-01	(-7.333707e-03 -7.333707e-03 0.000000e+00)	0
0.89         	U            	0.000000e+00	(-1.100056e-02 -1.100056e-02 0.000000e+00)	0	1.000000e-01	(-7.333707e-03 -7.333707e-03 0.000000e+00)	0
0.9          	U            	0.000000e+00	(-1.100056e-02 -1.100056e-02 0.000000e+00)	0	1.000000e-01	(-7.333707e-03 -7.333707e-03 0.000000e+00)	0
0.91         	U            	0.000000e+00	(-1.100056e-02 -1.100056e-02 0.000000e+00)	0	1.000000e-01	(-7.333707e-03 -7.333707e-03 0.000000e+00)	0
0.92         	U            	0.000000e+00	(-1.100056e-02 -1.100056e-02 0.000000e+00)	0	1.000000e-01	(-7.333707e-03 -7.333707e-03 0.000000e+00)	0
0.93         	U            	0.000000e+00	(-1.100056e-02 -1.100056e-02 0.000000e+00)	0	1.000000e-01	(-7.333707e-03 -7.333707e-03 0.000000e+00)	0
0.94         	U            	0.000000e+00	(-1.100056e-02 -1.100056e-02 0.000000e+00)	0	1.000000e-01	(-7.333707e-03 -7.333707e-03 0.000000e+00)	0
0.95         	U            	0.000000e+00	(-1.100056e-02 -1.100056e-02 0.000000e+00)	0	1.000000e-01	(-7.333707e-03 -7.333707e-03 0.000000e+00)	0
0.96         	U            	0.000000e+00	(-1.100056e-02 -1.100056e-02 0.000000e+00)	0	1.000000e-01	(-7.333707e-03 -7.333707e-03 0.000000e+00)	0
0.97         	U            	0.000000e+00	(-1.100056e-02 -1.100056e-02 0.000000e+00)	0	1.000000e-01	(-7.333707e-03 -7.333707e-03 0.000000e+00)	0
0.98         	U            	0.000000e+00	(-1.100056e-02 -1.100056e-02 0.000000e+00)	0	1.000000e-01	(-7.333707e-03 -7.333707e-03 0.000000e+00)	0
0.99         	U            	0.000000e+00	(-1.100056e-02 -1.100056e-02 0.000000e+00)	0	1.000000e-01	(-7.333707e-03 -7.333707e-03 0.000000e+00)	0
1            	U            	0.000000e+00	(-1.100056e-02 -1.100056e-02 0.000000e+00)	0	1.000000e-01	(-7.333707e-03 -7.333707e-03 0.000000e+00)	0
1.00952      	U            	0.000000e+00	(-1.100056e-02 -1.100056e-02 0.000000e+00)	0	1.006349e-01	(-7.333707e-03 -7.333707e-03 0.000000e+00)	0
1.01905      	U            	0.000000e+00	(-1.100056e-02 -1.100056e-02 0.000000e+00)	0	1.012698e-01	(-7.333707e-03 -7.333707e-03 0.000000e+00)	0
1.02857      	U            	0.000000e+00	(-1.100056e-02 -1.100056e-02 0.000000e+00)	0	1.019048e-01	(-7.333707e-03 -7.333707e-03 0.000000e+00)	0
1.0381       	U            	0.000000e+00	(-1.100056e-02 -1.100056e-02 0.000000e+00)	0	1.025397e-01	(-7.333707e-03 -7.333707e-03 0.000000e+00)	0
1.04762      	U            	0.000000e+00	(-1.100056e-02 -1.100056e-02 0.000000e+00)	0	1.431579e-01	(0.000000e+00 -1.100056e-02 6.600000e-03)	0
1.05714      	U            	0.000000e+00	(-1.100056e-02 -1.100056e-02 0.000000e+00)	0	1.949580e-01	(0.000000e+00 0.000000e+00 1.980000e-02)	0
1.06667      	U            	0.000000e+00	(-1.100056e-02 -1.100056e-02 0.000000e+00)	0	2.336576e-01	(0.000000e+00 0.000000e+00 1.980000e-02)	0
1.07619      	U            	0.000000e+00	(-1.100056e-02 -1.100056e-02 0.000000e+00)	0	2.489126e-01	(0.000000e+00 0.000000e+00 1.980000e-02)	0
1.08571      	U            	0.000000e+00	(-1.100056e-02 -1.100056e-02 0.000000e+00)	0	2.327050e-01	(0.000000e+00 -1.100056e-02 6.600000e-03)	0
1.09524      	U            	0.000000e+00	(-1.100056e-02 -1.100056e-02 0.000000e+00)	0	2.281826e-01	(0.000000e+00 -1.100056e-02 6.600000e-03)	0
1.10476      	U            	0.000000e+00	(-1.100056e-02 -1.100056e-02 0.000000e+00)	0	1.937081e-01	(0.000000e+00 -1.100056e-02 6.600000e-03)	0
1.11429      	U            	0.000000e+00	(-1.100056e-02 -1.100056e-02 0.000000e+00)	0	2.037718e-01	(0.000000e+00 -1.440183e-02 6.600000e-03)	0
1.12381      	U            	0.000000e+00	(-1.100056e-02 -1.100056e-02 0.000000e+00)	0	2.104007e-01	(0.000000e+00 -1.440183e-02 6.600000e-03)	0
1.13333      	U            	0.000000e+00	(-1.100056e-02 -1.100056e-02 0.000000e+00)	0	2.195313e-01	(0.000000e+00 -2.336415e-02 6.600000e-03)	0
1.14286      	U            	0.000000e+00	(-1.100056e-02 -1.100056e-02 0.000000e+00)	0	2.081966e-01	(0.000000e+00 -1.743316e-02 6.600000e-03)	0
1.15238      	U            	0.000000e+00	(-1.100056e-02 -1.100056e-02 0.000000e+00)	0	1.907749e-01	(0.000000e+00 -1.743316e-02 6.600000e-03)	0
1.1619       	U            	0.000000e+00	(-1.100056e-02 -1.100056e-02 0.000000e+00)	0	2.034944e-01	(0.000000e+00 -2.912183e-02 6.600000e-03)	0
1.17143      	U            	0.000000e+00	(-1.100056e-02 -1.100056e-02 0.000000e+00)	0	2.020183e-01	(0.000000e+00 -2.912183e-02 6.600000e-03)	0
1.18095      	U            	0.000000e+00	(-1.100056e-02 -1.100056e-02 0.000000e+00)	0	1.945401e-01	(0.000000e+00 -2.912183e-02 6.600000e-03)	0
1.19048      	U            	0.000000e+00	(-1.100056e-02 -1.100056e-02 0.000000e+00)	0	1.979511e-01	(0.000000e+00 -2.336415e-02 6.600000e-03)	0
1.2          	U            	0.000000e+00	(-1.100056e-02 -1.100056e-02 0.000000e+00)	0	2.004817e-01	(0.000000e+00 -2.336415e-02 6.600000e-03)	0
1.21         	U            	0.000000e+00	(-1.100056e-02 -1.100056e-02 0.000000e+00)	0	2.082144e-01	(0.000000e+00 -3.471017e-02 6.600000e-03)	0
1.22         	U            	0.000000e+00	(-1.100056e-02 -1.100056e-02 0.000000e+00)	0	2.167628e-01	(0.000000e+00 -3.471017e-02 6.600000e-03)	0
1.23         	U            	0.000000e+00	(-1.100056e-02 -1.100056e-02 0.000000e+00)	0	2.099675e-01	(0.000000e+00 -3.717555e-02 6.600000e-03)	0
1.24         	U            	0.000000e+00	(-1.100056e-02 -1.100056e-02 0.000000e+00)	0	2.511195e-01	(0.000000e+00 -4.091751e-02 6.600000e-03)	0
1.24941      	U            	0.000000e+00	(-1.100056e-02 -1.100056e-02 0.000000e+00)	0	3.854141e-01	(0.000000e+00 -4.091751e-02 6.600000e-03)	0
1.25827      	U            	0.000000e+00	(-1.100056e-02 -1.100056e-02 0.000000e+00)	0	3.422454e-01	(0.000000e+00 -4.091751e-02 6.600000e-03)	0
1.26661      	U            	0.000000e+00	(-1.100056e-02 -1.100056e-02 0.000000e+00)	0	2.860928e-01	(0.000000e+00 -4.615681e-02 6.600000e-03)	0
1.2755       	U            	0.000000e+00	(-1.100056e-02 -1.100056e-02 0.000000e+00)	0	2.952705e-01	(0.000000e+00 -4.615681e-02 6.600000e-03)	0
1.28508      	U            	0.000000e+00	(-1.100056e-02 -1.100056e-02 0.000000e+00)	0	2.414094e-01	(0.000000e+00 -3.717555e-02 6.600000e-03)	0
1.29465      	U            	0.000000e+00	(-1.100056e-02 -1.100056e-02 0.000000e+00)	0	2.558157e-01	(0.000000e+00 -5.146898e-02 6.600000e-03)	0
1.30423      	U            	0.000000e+00	(-1.100056e-02 -1.100056e-02 0.000000e+00)	0	3.271896e-01	(-7.333707e-03 7.333707e-03 6.600000e-03)	0
1.31381      	U            	0.000000e+00	(-1.100056e-02 -1.100056e-02 0.000000e+00)	0	3.865458e-01	(-7.333707e-03 7.333707e-03 6.600000e-03)	0
1.32338      	U            	0.000000e+00	(-1.100056e-02 -1.100056e-02 0.000000e+00)	0	3.763943e-01	(0.000000e+00 7.333707e-03 6.600000e-03)	0
1.33296      	U            	0.000000e+00	(-1.100056e-02 -1.100056e-02 0.000000e+00)	0	8.857104e-01	(0.000000e+00 7.333707e-03 6.600000e-03)	0
1.34254      	U            	0.000000e+00	(-1.100056e-02 -1.100056e-02 0.000000e+00)	0	6.045410e-01	(0.000000e+00 7.333707e-03 6.600000e-03)	0
1.35212      	U            	0.000000e+00	(-1.100056e-02 -1.100056e-02 0.000000e+00)	0	2.863772e+00	(0.000000e+00 0.000000e+00 6.600000e-03)	0
1.36169      	U            	0.000000e+00	(-1.100056e-02 -1.100056e-02 0.000000e+00)	0	1.787707e+00	(-3.666854e-03 0.000000e+00 6.600000e-03)	0
1.36935      	U            	0.000000e+00	(-1.100056e-02 -1.100056e-02 0.000000e+00)	0	1.353606e+00	(0.000000e+00 0.000000e+00 6.600000e-03)	0
1.37702      	U            	0.000000e+00	(-1.100056e-02 -1.100056e-02 0.000000e+00)	0	1.519608e+00	(-3.666854e-03 0.000000e+00 6.600000e-03)	0
1.38468      	U            	0.000000e+00	(-1.100056e-02 -1.100056e-02 0.000000e+00)	0	2.813426e+00	(0.000000e+00 0.000000e+00 1.980000e-02)	0
1.38851      	U            	0.000000e+00	(-1.100056e-02 -1.100056e-02 0.000000e+00)	0	1.995165e+00	(0.000000e+00 3.666854e-03 1.980000e-02)	0
1.39234      	U            	0.000000e+00	(-1.100056e-02 -1.100056e-02 0.000000e+00)	0	2.653754e+00	(-3.666854e-03 0.000000e+00 1.980000e-02)	0
1.39617      	U            	0.000000e+00	(-1.100056e-02 -1.100056e-02 0.000000e+00)	0	2.031383e+00	(0.000000e+00 -3.666854e-03 1.980000e-02)	0
1.4          	U            	0.000000e+00	(-1.100056e-02 -1.100056e-02 0.000000e+00)	0	2.176303e+00	(-3.666854e-03 -3.666854e-03 1.980000e-02)	0
1.40435      	U            	0.000000e+00	(-1.100056e-02 -1.100056e-02 0.000000e+00)	0	1.823720e+00	(0.000000e+00 0.000000e+00 1.980000e-02)	0
1.40936      	U            	0.000000e+00	(-1.100056e-02 -1.100056e-02 0.000000e+00)	0	2.362938e+00	(0.000000e+00 0.000000e+00 3.300000e-02)	0
1.41497      	U            	0.000000e+00	(-1.100056e-02 -1.100056e-02 0.000000e+00)	0	1.701312e+00	(-3.666854e-03 0.000000e+00 3.300000e-02)	0
1.42114      	U            	0.000000e+00	(-1.100056e-02 -1.100056e-02 0.000000e+00)	0	1.740018e+00	(0.000000e+00 -3.666854e-03 3.300000e-02)	0
1.42802      	U            	0.000000e+00	(-1.100056e-02 -1.100056e-02 0.000000e+00)	0	1.535338e+00	(-3.666854e-03 -3.666854e-03 3.300000e-02)	0
1.43584      	U            	0.000000e+00	(-1.100056e-02 -1.100056e-02 0.000000e+00)	0	1.441483e+00	(0.000000e+00 0.000000e+00 4.620000e-02)	0
1.44448      	U            	0.000000e+00	(-1.100056e-02 -1.100056e-02 0.000000e+00)	0	1.382882e+00	(-3.666854e-03 0.000000e+00 4.620000e-02)	0
1.45362      	U            	0.000000e+00	(-1.100056e-02 -1.100056e-02 0.000000e+00)	0	1.331376e+00	(-3.666854e-03 -3.666854e-03 4.620000e-02)	0
1.46338      	U            	0.000000e+00	(-1.100056e-02 -1.100056e-02 0.000000e+00)	0	1.295607e+00	(-3.666854e-03 -3.666854e-03 4.620000e-02)	0
1.47389      	U            	0.000000e+00	(-1.100056e-02 -1.100056e-02 0.000000e+00)	0	1.233933e+00	(0.000000e+00 -3.666854e-03 5.940000e-02)	0
1.4844       	U            	0.000000e+00	(-1.100056e-02 -1.100056e-02 0.000000e+00)	0	1.204738e+00	(-3.666854e-03 -3.666854e-03 5.940000e-02)	0
1.49403      	U            	0.000000e+00	(-1.100056e-02 -1.100056e-02 0.000000e+00)	0	1.172163e+00	(-3.666854e-03 -3.666854e-03 5.940000e-02)	0
1.50286      	U            	0.000000e+00	(-1.100056e-02 -1.100056e-02 0.000000e+00)	0	1.150741e+00	(-3.666854e-03 -3.666854e-03 5.940000e-02)	0
1.5117       	U            	0.000000e+00	(-1.100056e-02 -1.100056e-02 0.000000e+00)	0	1.128303e+00	(-3.666854e-03 -3.666854e-03 5.940000e-02)	0
1.52053      	U            	0.000000e+00	(-1.100056e-02 -1.100056e-02 0.000000e+00)	0	1.103794e+00	(-3.666854e-03 -3.666854e-03 7.095000e-02)	0
1.52936      	U            	0.000000e+00	(-1.100056e-02 -1.100056e-02 0.000000e+00)	0	1.083855e+00	(-3.666854e-03 -3.666854e-03 7.095000e-02)	0
1.53819      	U            	0.000000e+00	(-1.100056e-02 -1.100056e-02 0.000000e+00)	0	1.112728e+00	(0.000000e+00 0.000000e+00 1.980000e-02)	0
1.54702      	U            	0.000000e+00	(-1.100056e-02 -1.100056e-02 0.000000e+00)	0	1.074907e+00	(-3.666854e-03 0.000000e+00 3.300000e-02)	0
1.55585      	U            	0.000000e+00	(-1.100056e-02 -1.100056e-02 0.000000e+00)	0	1.150994e+00	(-3.666854e-03 0.000000e+00 3.300000e-02)	0
1.56468      	U            	0.000000e+00	(-1.100056e-02 -1.100056e-02 0.000000e+00)	0	1.221935e+00	(-3.666854e-03 0.000000e+00 4.620000e-02)	0
1.57351      	U            	0.000000e+00	(-1.100056e-02 -1.100056e-02 0.000000e+00)	0	1.184458e+00	(-3.666854e-03 0.000000e+00 5.940000e-02)	0
1.58013      	U            	0.000000e+00	(-1.100056e-02 -1.100056e-02 0.000000e+00)	0	1.397329e+00	(-3.666854e-03 0.000000e+00 5.940000e-02)	0
1.58675      	U            	0.000000e+00	(-1.100056e-02 -1.100056e-02 0.000000e+00)	0	1.373386e+00	(-3.666854e-03 0.000000e+00 7.095000e-02)	0
1.59338      	U            	0.000000e+00	(-1.100056e-02 -1.100056e-02 0.000000e+00)	0	1.332860e+00	(-3.666854e-03 0.000000e+00 7.095000e-02)	0
1.6          	U            	0.000000e+00	(-1.100056e-02 -1.100056e-02 0.000000e+00)	0	1.362586e+00	(-3.666854e-03 0.000000e+00 8.085000e-02)	0
1.60714      	U            	0.000000e+00	(-1.100056e-02 -1.100056e-02 0.000000e+00)	0	1.282558e+00	(-3.666854e-03 0.000000e+00 8.085000e-02)	0
1.61456      	U            	0.000000e+00	(-1.100056e-02 -1.100056e-02 0.000000e+00)	0	1.241783e+00	(-3.666854e-03 0.000000e+00 9.075000e-02)	0
1.62198      	U            	0.000000e+00	(-1.100056e-02 -1.100056e-02 0.000000e+00)	0	1.276939e+00	(-3.666854e-03 0.000000e+00 9.075000e-02)	0
1.6294       	U            	0.000000e+00	(-1.100056e-02 -1.100056e-02 0.000000e+00)	0	1.180882e+00	(-3.666854e-03 0.000000e+00 1.006500e-01)	0
1.63681      	U            	0.000000e+00	(-1.100056e-02 -1.100056e-02 0.000000e+00)	0	1.200237e+00	(-3.666854e-03 0.000000e+00 1.006500e-01)	0
1.64458      	U            	0.000000e+00	(-1.100056e-02 -1.100056e-02 0.000000e+00)	0	1.100670e+00	(-3.666854e-03 -3.666854e-03 1.204500e-01)	0
1.65276      	U            	0.000000e+00	(-1.100056e-02 -1.100056e-02 0.000000e+00)	0	1.073727e+00	(-3.666854e-03 0.000000e+00 1.303500e-01)	0
1.66094      	U            	0.000000e+00	(-1.100056e-02 -1.100056e-02 0.000000e+00)	0	1.065309e+00	(-3.666854e-03 -3.666854e-03 1.303500e-01)	0
1.66963      	U            	0.000000e+00	(-1.100056e-02 -1.100056e-02 0.000000e+00)	0	1.018765e+00	(-3.666854e-03 0.000000e+00 8.085000e-02)	0
1.67895      	U            	0.000000e+00	(-1.100056e-02 -1.100056e-02 0.000000e+00)	0	1.081212e+00	(-3.666854e-03 0.000000e+00 8.085000e-02)	0
1.68759      	U            	0.000000e+00	(-1.100056e-02 -1.100056e-02 0.000000e+00)	0	1.170497e+00	(-3.666854e-03 0.000000e+00 9.075000e-02)	0
1.69562      	U            	0.000000e+00	(-1.100056e-02 -1.100056e-02 0.000000e+00)	0	1.217251e+00	(-3.666854e-03 0.000000e+00 1.006500e-01)	0
1.70365      	U            	0.000000e+00	(-1.100056e-02 -1.100056e-02 0.000000e+00)	0	1.189630e+00	(-3.666854e-03 0.000000e+00 1.006500e-01)	0
1.71168      	U            	0.000000e+00	(-1.100056e-02 -1.100056e-02 0.000000e+00)	0	1.252793e+00	(-3.666854e-03 0.000000e+00 1.105500e-01)	0
1.71904      	U            	0.000000e+00	(-1.100056e-02 -1.100056e-02 0.000000e+00)	0	1.230837e+00	(-3.666854e-03 0.000000e+00 1.204500e-01)	0
1.7264       	U            	0.000000e+00	(-1.100056e-02 -1.100056e-02 0.000000e+00)	0	1.205054e+00	(-3.666854e-03 0.000000e+00 1.204500e-01)	0
1.73376      	U            	0.000000e+00	(-1.100056e-02 -1.100056e-02 0.000000e+00)	0	1.166080e+00	(-3.666854e-03 0.000000e+00 1.303500e-01)	0
1.74112      	U            	0.000000e+00	(-1.100056e-02 -1.100056e-02 0.000000e+00)	0	1.137602e+00	(-3.666854e-03 0.000000e+00 1.303500e-01)	0
1.74848      	U            	0.000000e+00	(-1.100056e-02 -1.100056e-02 0.000000e+00)	0	1.113573e+00	(-3.666854e-03 -3.666854e-03 1.303500e-01)	0
1.75584      	U            	0.000000e+00	(-1.100056e-02 -1.100056e-02 0.000000e+00)	0	1.068296e+00	(-3.666854e-03 0.000000e+00 1.303500e-01)	0
1.7632       	U            	0.000000e+00	(-1.100056e-02 -1.100056e-02 0.000000e+00)	0	1.033858e+00	(-3.666854e-03 -3.666854e-03 1.402500e-01)	0
1.77056      	U            	0.000000e+00	(-1.100056e-02 -1.100056e-02 0.000000e+00)	0	1.023697e+00	(-3.666854e-03 0.000000e+00 1.006500e-01)	0
1.77792      	U            	0.000000e+00	(-1.100056e-02 -1.100056e-02 0.000000e+00)	0	1.015709e+00	(-3.666854e-03 0.000000e+00 1.006500e-01)	0
1.78528      	U            	0.000000e+00	(-1.100056e-02 -1.100056e-02 0.000000e+00)	0	1.080314e+00	(-3.666854e-03 0.000000e+00 1.105500e-01)	0
1.79264      	U            	0.000000e+00	(-1.100056e-02 -1.100056e-02 0.000000e+00)	0	1.076957e+00	(-3.666854e-03 -3.666854e-03 1.204500e-01)	0
1.8          	U            	0.000000e+00	(-1.100056e-02 -1.100056e-02 0.000000e+00)	0	1.133391e+00	(-3.666854e-03 0.000000e+00 1.204500e-01)	0
1.808        	U            	0.000000e+00	(-1.100056e-02 -1.100056e-02 0.000000e+00)	0	1.110565e+00	(-3.666854e-03 -3.666854e-03 1.303500e-01)	0
1.81635      	U            	0.000000e+00	(-1.100056e-02 -1.100056e-02 0.000000e+00)	0	1.130232e+00	(-3.666854e-03 0.000000e+00 1.303500e-01)	0