/*--------------------------------*- C++ -*----------------------------------*\
| =========                 |                                                 |
| \\      /  F ield         | OpenFOAM: The Open Source CFD Toolbox           |
|  \\    /   O peration     | Version:  1.4.2                                 |
|   \\  /    A nd           | Web:      http://www.openfoam.org               |
|    \\/     M anipulation  |                                                 |
\*---------------------------------------------------------------------------*/
FoamFile
{
    version     2.0;
    format      ascii;
    class       volScalarField;
    object      epsilon;
    location    "150";
}
// * * * * * * * * * * * * * * * * * * * * * * * * * * * * * * * * * * * * * //

dimensions      [0 2 -3 0 0 0 0];

internalField   nonuniform List<scalar> 
12225
(
443.024
353.445
290.568
245.313
212.141
187.54
169.218
155.671
146.057
140.704
144.312
179.863
330.023
766.565
1667.78
3239.51
7191.97
10999.1
60.1728
73.6245
79.5958
83.7459
87.7845
92.4291
98.0037
104.617
112.203
120.597
130.673
150.821
209.786
358.235
655.39
1192.89
2121.23
3234.84
26.3019
33.7114
37.8439
40.6925
42.9524
44.9923
47.0246
49.2005
51.7799
55.9771
67.6022
103.578
189.439
349.139
606.051
993.987
1535.56
2178.29
18.74
22.7348
25.4891
27.3727
28.8182
30.0377
31.174
32.4528
34.5671
40.3378
59.4487
112.086
219.945
396.152
648.761
986.447
1407.9
1888.63
16.1713
18.176
19.9499
21.3096
22.3652
23.2298
24.0598
25.2117
27.8611
36.426
63.8243
132.002
258.712
449.168
701.826
1013.53
1376.46
1776.41
15.2366
16.0944
17.0642
17.9635
18.7301
19.4012
20.1226
21.3678
24.8954
36.8812
73.3504
156.795
300.113
501.783
753.928
1047.72
1373.64
1722.7
14.8947
15.1739
15.5963
16.0727
16.5503
17.0431
17.7015
19.1551
23.8395
39.9462
86.3414
184.616
342.245
552.19
802.491
1081.65
1380.02
1691.48
14.7878
14.8396
14.9971
15.2239
15.4946
15.8356
16.4393
18.1147
23.9475
43.8804
98.5061
207.582
374.237
587.96
834.708
1102
1380.51
1665.55
14.7443
14.6888
14.7027
14.7758
14.9021
15.1198
15.6409
17.3492
23.6098
45.0706
102.761
215.147
383.16
594.571
834.259
1089.34
1350.75
1614.34
14.7242
14.6132
14.5428
14.514
14.5323
14.6418
15.0532
16.6423
22.7774
44.1139
101.332
211.882
375.725
579.991
809.106
1050.03
1293.89
1536.57
14.7154
14.5787
14.4649
14.3774
14.3253
14.3514
14.6486
16.0267
21.6612
41.7369
96.0147
201.018
356.561
550.021
765.939
991.35
1217.43
1439.89
14.7116
14.5643
14.431
14.3142
14.2221
14.1916
14.3875
15.5208
20.462
38.6329
88.518
185.679
330.209
510.347
711.235
920.197
1128.47
1331.43
14.7098
14.5584
14.4175
14.2881
14.1765
14.1114
14.2273
15.1282
19.3416
35.3868
80.2891
168.633
300.849
466.31
651.125
843.161
1033.81
1218.18
14.7088
14.5557
14.4121
14.2782
14.158
14.0735
14.1321
14.8414
18.4124
32.4744
72.5219
152.103
271.898
422.415
590.968
766.214
939.872
1106.91
14.708
14.5541
14.4096
14.2742
14.1507
14.0557
14.0761
14.6439
17.7151
30.1542
65.9754
137.56
245.71
382.005
535.051
694.466
852.46
1004.05
14.7073
14.5529
14.408
14.2723
14.1475
14.0467
14.0424
14.5111
17.2125
28.3883
60.7356
125.461
223.388
347.075
486.392
631.986
776.681
915.674
14.7066
14.5519
14.4068
14.271
14.1458
14.0417
14.0208
14.4162
16.822
26.9459
56.4038
115.487
205.083
318.614
447.086
582.13
717.217
847.824
14.7061
14.5512
14.4062
14.2705
14.1452
14.0392
14.0069
14.3439
16.485
25.6469
52.6768
107.515
191.367
298.369
420.402
549.905
680.939
809.285
14.7059
14.5511
14.4065
14.2712
14.146
14.0387
13.9961
14.2723
16.1074
24.1359
48.5626
99.6037
179.319
282.588
401.953
530.474
662.704
794.736
14.7061
14.5519
14.408
14.2736
14.1492
14.0414
13.9885
14.1968
15.6717
22.3095
43.483
89.9878
165.37
265.533
383.657
513.352
649.644
788.992
14.7068
14.5539
14.412
14.2806
14.16
14.0553
13.9966
14.1421
15.2581
20.4199
37.8289
78.6983
148.55
244.758
361.271
492.322
633.515
781.815
14.7085
14.5599
14.4253
14.3046
14.198
14.1089
14.0592
14.1645
14.9803
18.7958
32.3628
66.7387
129.539
220.126
333.486
464.668
610.053
767.328
14.7142
14.5811
14.4727
14.388
14.3248
14.2827
14.2747
14.3804
14.9846
17.7072
27.7594
55.2871
109.611
192.513
300.45
429.59
577.344
742.356
14.7358
14.659
14.6347
14.6519
14.6976
14.7622
14.8487
15.0068
15.4906
17.39
24.4754
45.3224
90.0706
163.11
263.039
387.493
535.048
705.62
14.8204
14.9282
15.1335
15.3863
15.6479
15.8984
16.1349
16.3885
16.8192
18.1171
22.8195
37.55
72.1274
133.398
222.758
339.582
483.874
657.269
15.1406
15.7804
16.5064
17.1906
17.7784
18.2658
18.6682
19.0193
19.4209
20.2715
23.1127
32.5737
57.2329
105.541
181.806
287.761
425.478
598.895
16.317
18.2896
19.9494
21.2217
22.172
22.8796
23.4107
23.8226
24.1885
24.7066
26.1573
31.3313
46.8949
81.7706
142.833
234.704
362.645
534.335
20.7508
25.6261
28.686
30.5993
31.8395
32.6579
33.2092
33.5957
33.8881
34.1681
34.692
36.6142
43.9602
64.8385
108.398
182.867
298.821
472.513
43.9559
54.4846
58.7003
60.4014
60.9435
60.9428
60.7783
60.6574
60.6356
60.7184
60.8793
61.1626
62.4198
68.7547
90.3143
143.077
251.438
467.72
332.628
280.255
240.739
210.207
186.179
166.981
151.445
138.738
128.262
119.602
112.562
107.449
106.275
116.845
162.772
294.433
594.066
1555.14
8.57715
14.6298
26.3695
41.3378
57.1764
74.0717
91.9764
110.82
130.545
151.111
172.483
194.637
217.552
241.213
265.609
290.736
316.592
343.18
370.507
398.582
427.42
457.036
487.449
518.682
550.756
583.698
617.534
652.291
687.999
724.684
762.376
801.101
840.886
881.756
923.731
966.83
1011.07
1056.45
1102.98
1150.66
1199.47
1249.41
1300.44
1352.54
1405.67
1459.83
1515
1571.2
1628.52
1686.75
1744.21
1800.38
1854.64
1906.36
1954.83
1999.28
2038.95
2073.06
2100.85
2121.62
2134.75
2139.72
2136.15
2123.81
2102.64
2072.75
2034.45
1988.19
1934.59
1874.4
1808.47
1737.72
1663.12
1585.64
1506.25
1425.87
1345.36
1265.49
1186.96
1110.37
1036.21
964.883
896.852
832.668
772.511
717.542
669.607
627.048
587.891
551.528
517.7
486.239
457.006
429.869
404.701
381.378
359.778
339.786
321.287
304.175
288.348
273.71
260.17
247.644
236.052
225.322
215.384
206.176
197.639
189.718
182.365
175.532
169.177
163.261
157.748
152.604
147.799
143.305
139.095
135.145
131.434
127.941
124.647
121.535
118.59
115.796
113.14
110.611
108.197
105.888
103.676
101.55
99.5055
97.5343
95.6309
93.7904
92.0082
90.2805
88.604
86.9762
85.3949
83.8584
82.3654
80.9151
79.5068
78.1403
76.8156
75.5329
74.2924
73.0947
71.9403
70.83
69.7645
68.7445
67.7707
66.8438
65.9644
65.133
64.3501
63.616
62.9308
62.2943
61.7061
61.1648
60.6658
60.117
45.4651
36.3157
30.3426
26.2968
23.4696
21.4392
19.9425
18.8077
17.9163
17.2027
16.6354
16.1643
15.7551
15.2578
43.1313
38.5782
48.5201
61.9584
76.6403
91.6964
106.721
121.555
136.157
150.533
164.705
178.705
192.567
206.328
220.025
233.693
247.368
261.082
274.868
288.753
302.765
316.929
331.266
345.798
360.541
375.513
390.725
406.191
421.918
437.914
454.185
470.733
487.559
504.662
522.04
539.689
557.603
575.776
594.202
612.874
631.788
650.942
670.335
689.975
709.87
730.035
750.493
771.271
792.406
814.076
835.496
856.359
876.41
895.386
913.002
928.966
942.984
954.767
964.042
970.561
974.111
974.517
971.653
965.446
955.88
942.999
926.906
907.764
885.786
861.228
834.387
805.592
775.19
743.538
710.99
677.887
644.543
611.249
578.267
545.823
514.104
483.248
453.342
424.467
396.352
370.393
346.581
324.703
304.455
285.646
268.155
251.887
236.764
222.714
209.668
197.562
186.334
175.925
166.278
157.339
149.058
141.386
134.277
127.69
121.584
115.923
110.672
105.8
101.276
97.0726
93.165
89.5294
86.144
82.9887
80.0449
77.2957
74.725
72.3184
70.0623
67.9442
65.9528
64.0773
62.3081
60.636
59.0527
57.5507
56.1229
54.7628
53.4645
52.2226
51.0322
49.8888
48.7885
47.7276
46.7029
45.7115
44.7509
43.8188
42.9134
42.0331
41.1765
40.3424
39.5299
38.7384
37.9672
37.2161
36.4846
35.7728
35.0806
34.4079
33.7549
33.1217
32.5086
31.9157
31.3432
30.7913
30.2602
29.7502
29.2612
28.7934
28.3469
27.9216
27.5176
27.135
26.7731
26.4028
25.1906
23.7508
22.3395
21.0542
19.9229
18.9436
18.1029
17.3862
16.8045
16.3355
15.9621
15.687
15.5553
15.8205
73.6066
56.6442
65.0079
77.5974
91.374
105.349
119.082
132.398
145.263
157.699
169.753
181.479
192.93
204.16
215.215
226.138
236.967
247.737
258.475
269.207
279.956
290.738
301.57
312.465
323.434
334.485
345.625
356.861
368.198
379.639
391.186
402.842
414.61
426.49
438.485
450.598
462.832
475.192
487.686
500.322
513.112
526.07
539.215
552.564
566.139
579.96
594.039
608.384
622.985
637.801
652.575
667.129
681.291
694.868
707.649
719.412
729.923
738.953
746.279
751.691
755.002
756.048
754.702
750.869
744.499
735.583
724.169
710.36
694.302
676.167
656.169
634.56
611.615
587.619
562.86
537.612
512.108
486.566
461.181
436.121
411.53
387.477
364.044
341.444
320.05
300.047
281.419
264.086
247.942
232.891
218.859
205.782
193.601
182.264
171.719
161.918
152.812
144.357
136.508
129.224
122.466
116.195
110.376
104.976
99.963
95.3084
90.9846
86.9664
83.2299
79.7533
76.5163
73.5
70.6869
68.0609
65.607
63.3115
61.1616
59.1455
57.2522
55.4717
53.7947
52.2126
50.7173
49.3017
47.9588
46.6826
45.4672
44.3075
43.1985
42.1359
41.1156
40.1341
39.1879
38.2742
37.3902
36.5336
35.7023
34.8943
34.1082
33.3425
32.596
31.8678
31.1569
30.4628
29.7848
29.1227
28.476
27.8446
27.2284
26.6272
26.0411
25.47
24.9142
24.3735
23.8481
23.3382
22.8436
22.3646
21.9012
21.4533
21.0211
20.6044
20.2032
19.8174
19.4463
19.0816
18.622
18.0792
17.4895
16.8862
16.2938
15.7278
15.1974
14.7081
14.2662
13.8755
13.5432
13.2818
13.128
13.2211
101.126
70.9192
77.1069
88.6619
101.507
114.505
127.216
139.477
151.258
162.587
173.517
184.104
194.404
204.468
214.34
224.058
233.656
243.16
252.593
261.973
271.313
280.627
289.924
299.211
308.494
317.778
327.068
336.369
345.683
355.015
364.37
373.753
383.17
392.628
402.137
411.707
421.352
431.087
440.931
450.905
461.034
471.346
481.871
492.643
503.695
515.06
526.765
538.829
551.26
564.015
576.977
590.03
603.039
615.839
628.239
640.025
650.968
660.83
669.372
676.361
681.576
684.816
685.902
684.686
681.059
674.926
666.279
655.189
641.803
626.239
608.676
589.364
568.59
546.656
523.881
500.572
476.942
453.198
429.545
406.138
383.169
360.628
339.036
318.445
298.943
280.587
263.375
247.272
232.223
218.172
205.061
192.839
181.454
170.857
161.001
151.839
143.326
135.42
128.08
121.267
114.942
109.071
103.622
98.5611
93.861
89.494
85.4345
81.659
78.1455
74.8736
71.8244
68.9803
66.3251
63.8438
61.5226
59.3486
57.31
55.3957
53.5957
51.9006
50.3017
48.7911
47.3613
46.0056
44.7178
43.4919
42.3227
41.2054
40.1355
39.1088
38.1218
37.1709
36.2532
35.3658
34.5063
33.6725
32.8625
32.0744
31.3069
30.5585
29.8281
29.1148
28.4179
27.7366
27.0704
26.419
25.7819
25.1589
24.55
23.9549
23.3736
22.8062
22.2526
21.7128
21.1869
20.6749
20.1769
19.6929
19.223
18.767
18.3251
17.8973
17.4833
17.0832
16.6965
16.3209
15.9389
15.5423
15.1321
14.7142
14.2959
13.8841
13.4848
13.1032
12.7444
12.4139
12.1207
11.8768
11.706
11.6643
124.737
82.1439
85.7711
96.048
107.911
119.996
131.822
143.221
154.167
164.69
174.843
184.681
194.256
203.613
212.792
221.825
230.738
239.551
248.279
256.935
265.525
274.058
282.536
290.963
299.342
307.674
315.961
324.207
332.415
340.589
348.736
356.863
364.979
373.098
381.233
389.402
397.625
405.928
414.338
422.888
431.615
440.56
449.767
459.286
469.167
479.461
490.216
501.474
513.266
525.583
538.372
551.558
565.031
578.643
592.205
605.497
618.273
630.267
641.203
650.803
658.798
664.929
668.959
670.669
669.934
666.46
660.143
651.014
639.192
624.852
608.225
589.591
569.26
547.562
524.823
501.357
477.449
453.326
429.269
405.369
382.092
359.685
338.228
317.788
298.426
280.163
262.996
246.902
231.843
217.774
204.647
192.412
181.021
170.423
160.571
151.417
142.915
135.022
127.696
120.897
114.587
108.73
103.292
98.2428
93.5521
89.1928
85.1392
81.3678
77.8565
74.5849
71.5343
68.687
66.027
63.5394
61.2103
59.027
56.9777
55.0516
53.2385
51.5293
49.9153
48.3887
46.9421
45.5688
44.2627
43.018
41.8296
40.6925
39.6025
38.5555
37.5479
36.5763
35.6378
34.7295
33.8492
32.9945
32.1637
31.3549
30.5667
29.7977
29.047
28.3134
27.5962
26.8949
26.2087
25.5373
24.8803
24.2375
23.6087
22.9938
22.3927
21.8054
21.2318
20.6719
20.1258
19.5936
19.0752
18.5707
18.08
17.6033
17.1405
16.6916
16.2566
15.8354
15.4278
15.033
14.6473
14.2671
13.8906
13.5177
13.15
12.7898
12.4396
12.1025
11.7818
11.4819
11.2098
10.9748
10.7913
10.6846
143.489
90.6063
91.5854
100.383
111.165
122.33
133.322
143.952
154.183
164.043
173.579
182.843
191.884
200.742
209.452
218.038
226.523
234.918
243.235
251.479
259.653
267.758
275.792
283.756
291.646
299.463
307.204
314.871
322.466
329.991
337.453
344.859
352.221
359.552
366.869
374.195
381.556
388.98
396.506
404.174
412.033
420.137
428.545
437.323
446.543
456.276
466.595
477.57
489.257
501.694
514.877
528.77
543.286
558.29
573.596
588.969
604.138
618.8
632.636
645.319
656.523
665.939
673.279
678.126
680.082
678.913
674.527
666.945
656.285
642.748
626.59
608.115
587.661
565.6
542.278
518.032
493.242
468.046
443.013
418.405
394.44
371.302
349.116
327.981
307.982
289.105
271.349
254.693
239.103
224.537
210.95
198.291
186.509
175.554
165.374
155.921
147.145
139
131.443
124.43
117.923
111.884
106.278
101.072
96.235
91.7391
87.5576
83.6659
80.0414
76.663
73.5112
70.568
67.8167
65.2421
62.8299
60.5671
58.4415
56.4419
54.5582
52.7808
51.1009
49.5104
48.0019
46.5686
45.2042
43.9027
42.659
41.4682
40.3257
39.2276
38.17
37.1496
36.1634
35.2086
34.2827
33.3836
32.5092
31.6578
30.8279
30.0181
29.2273
28.4546
27.699
26.9599
26.2367
25.5291
24.8365
24.1587
23.4956
22.8469
22.2125
21.5925
20.9868
20.3954
19.8183
19.2555
18.7071
18.1731
17.6536
17.1485
16.6579
16.1818
15.7202
15.2732
14.8405
14.422
14.0167
13.6235
13.2411
12.8692
12.5077
12.1573
11.8191
11.4947
11.1862
10.8966
10.6308
10.3956
10.1992
10.0536
156.941
96.4813
94.9695
102.179
111.778
121.978
132.142
142.042
151.619
160.889
169.892
178.675
187.281
195.747
204.102
212.368
220.56
228.687
236.754
244.762
252.709
260.59
268.401
276.136
283.788
291.353
298.826
306.203
313.484
320.669
327.76
334.764
341.689
348.547
355.357
362.138
368.918
375.731
382.616
389.622
396.804
404.229
411.973
420.12
428.762
438
447.935
458.669
470.292
482.897
496.538
511.213
526.868
543.381
560.566
578.169
595.886
613.374
630.266
646.184
660.751
673.607
684.184
691.905
696.397
697.428
694.889
688.793
679.256
666.485
650.763
632.406
611.758
589.282
565.322
540.162
514.529
488.656
462.887
437.495
412.707
388.705
365.628
343.578
322.631
302.824
284.194
266.718
250.36
235.079
220.826
207.55
195.199
183.716
173.05
163.147
153.956
145.427
137.515
130.173
123.36
117.038
111.167
105.715
100.648
95.937
91.5542
87.4736
83.6716
80.126
76.8166
73.7244
70.8322
68.124
65.5848
63.2012
60.9605
58.8512
56.8624
54.9844
53.208
51.5249
49.9274
48.4083
46.9612
45.58
44.2592
42.9939
41.7793
40.6113
39.4861
38.4001
37.3502
36.3336
35.3476
34.39
33.4588
32.552
31.6682
30.8059
29.9639
29.1411
28.3368
27.55
26.7803
26.0271
25.2901
24.5688
23.8631
23.1728
22.4978
21.8379
21.1932
20.5637
19.9493
19.3502
18.7662
18.1976
17.6443
17.1063
16.5838
16.0768
15.5853
15.1093
14.6488
14.2038
13.7741
13.3594
12.9591
12.573
12.2009
11.8431
11.5002
11.1729
10.8627
10.5715
10.3026
10.0605
9.8498
9.67639
165.134
99.9388
96.2566
101.864
110.21
119.394
128.712
137.889
146.839
155.556
164.069
172.418
180.639
188.767
196.825
204.832
212.8
220.734
228.635
236.498
244.318
252.087
259.795
267.431
274.986
282.45
289.814
297.071
304.215
311.24
318.147
324.935
331.608
338.175
344.647
351.041
357.38
363.694
370.022
376.412
382.924
389.631
396.624
404.007
411.9
420.437
429.76
440.017
451.341
463.907
477.827
493.149
509.85
527.821
546.863
566.692
586.951
607.241
627.147
646.249
664.126
680.162
693.614
703.956
710.819
713.947
713.214
708.625
700.279
688.376
673.247
655.216
634.501
611.869
587.719
562.427
536.452
510.152
483.858
457.853
432.377
407.622
383.744
360.857
339.047
318.367
298.848
280.498
263.315
247.265
232.295
218.353
205.382
193.324
182.123
171.723
162.069
153.111
144.797
137.083
129.922
123.274
117.1
111.363
106.029
101.068
96.45
92.1482
88.1376
84.3953
80.9
77.6319
74.5731
71.7067
69.0174
66.4908
64.1139
61.8746
59.7617
57.765
55.8749
54.0828
52.3806
50.761
49.2172
47.743
46.3326
44.9809
43.683
42.4346
41.2317
40.0706
38.9481
37.8612
36.8072
35.7836
34.7884
33.8195
32.8754
31.9545
31.0555
30.1773
29.3189
28.4796
27.6586
26.8554
26.0695
25.3006
24.5483
23.8126
23.0932
22.39
21.703
21.0322
20.3775
19.739
19.1168
18.5109
17.9213
17.3481
16.7915
16.2514
15.728
15.2213
14.7314
14.2584
13.8022
13.3628
12.9401
12.534
12.1445
11.7717
11.4161
11.078
10.7584
10.4588
10.1809
9.92758
9.70139
9.50523
168.459
101.186
95.7398
99.8148
106.881
115.013
123.461
131.91
140.238
148.416
156.458
164.39
172.247
180.054
187.836
195.605
203.37
211.133
218.892
226.639
234.364
242.057
249.702
257.288
264.799
272.221
279.543
286.751
293.834
300.783
307.59
314.25
320.76
327.121
333.336
339.413
345.368
351.22
356.999
362.743
368.507
374.365
380.412
386.773
393.6
401.076
409.408
418.823
429.521
441.794
455.826
471.717
489.474
508.983
529.998
552.155
575.001
598.044
620.812
642.879
663.644
682.231
698.011
710.51
719.369
724.296
725.158
721.983
714.832
703.846
689.505
672.166
652.196
630.095
606.307
581.257
555.364
529.007
502.526
476.22
450.343
425.107
400.681
377.195
354.747
333.402
313.199
294.154
276.269
259.524
243.902
229.348
215.805
203.211
191.509
180.64
170.547
161.177
152.477
144.4
136.898
129.93
123.454
117.433
111.832
106.617
101.761
97.2327
93.0082
89.0631
85.3753
81.9245
78.6918
75.66
72.8129
70.1359
67.6154
65.2387
62.9944
60.8718
58.861
56.9532
55.1399
53.4135
51.7671
50.1942
48.6889
47.2457
45.8598
44.5266
43.2419
42.002
40.8034
39.643
38.518
37.4258
36.3643
35.3312
34.3248
33.3435
32.3859
31.4508
30.5372
29.644
28.7707
27.9164
27.0808
26.2634
25.4638
24.6818
23.9173
23.1701
22.44
21.7272
21.0315
20.353
19.6918
19.0478
18.4212
17.8121
17.2206
16.6467
16.0906
15.5525
15.0323
14.5302
14.0463
13.5808
13.1336
12.7049
12.2946
11.903
11.5303
11.1769
10.8434
10.5306
10.2398
9.97236
9.72944
9.51277
167.523
100.478
93.7046
96.3797
102.191
109.264
116.831
124.544
132.247
139.886
147.457
154.975
162.466
169.95
177.447
184.967
192.514
200.089
207.684
215.292
222.899
230.492
238.053
245.567
253.016
260.382
267.649
274.801
281.82
288.693
295.405
301.946
308.304
314.472
320.446
326.225
331.813
337.22
342.459
347.55
352.524
357.436
362.375
367.477
372.927
378.973
385.933
394.177
404.06
416.015
430.295
447.053
466.299
487.859
511.364
536.276
561.952
587.738
613.083
637.636
660.344
680.516
697.663
711.415
721.468
727.495
729.377
727.229
721.165
711.374
698.171
681.902
662.949
641.737
618.7
594.265
568.842
542.816
516.537
490.315
464.415
439.064
414.443
390.696
367.931
346.224
325.623
306.153
287.82
270.613
254.511
239.481
225.488
212.47
200.365
189.113
178.658
168.944
159.918
151.531
143.735
136.487
129.745
123.47
117.628
112.185
107.109
102.373
97.9493
93.8142
89.945
86.3207
82.922
79.7313
76.7321
73.9092
71.2487
68.7378
66.3645
64.118
61.9882
59.9659
58.0425
56.2103
54.462
52.791
51.1913
49.6574
48.1841
46.7668
45.4011
44.0833
42.8096
41.5769
40.3822
39.2229
38.0964
37.0006
35.9337
34.8938
33.8794
32.8892
31.9221
30.977
30.0531
29.1497
28.2661
27.4019
26.5567
25.7302
24.9221
24.1323
23.3606
22.6071
21.8716
21.1541
20.4548
19.7737
19.1108
18.4663
17.8403
17.2329
16.6443
16.0745
15.5238
14.9924
14.4803
13.9877
13.5149
13.0618
12.6287
12.2158
11.8232
11.4513
11.1005
10.7714
10.4645
10.1805
9.91934
9.68269
162.944
98.1131
90.4548
91.9174
96.5531
102.599
109.297
116.275
123.351
130.448
137.543
144.639
151.749
158.89
166.073
173.306
180.591
187.924
195.299
202.705
210.127
217.551
224.957
232.327
239.643
246.883
254.028
261.057
267.951
274.69
281.256
287.629
293.795
299.74
305.451
310.924
316.156
321.157
325.945
330.53
334.865
338.962
342.885
346.755
350.776
355.269
360.713
367.725
377.084
389.244
404.525
423.094
444.889
469.564
496.495
524.844
553.673
582.085
609.395
635.406
658.743
679.062
696.09
709.61
719.438
725.445
727.582
725.891
720.475
711.502
699.218
683.926
665.975
645.749
623.648
600.078
575.435
550.093
524.397
498.656
473.141
448.081
423.666
400.046
377.339
355.627
334.966
315.389
296.908
279.518
263.201
247.931
233.673
220.39
208.027
196.525
185.825
175.873
166.616
158.004
149.99
142.53
135.583
129.111
123.076
117.447
112.192
107.282
102.691
98.3944
94.3688
90.5935
87.0491
83.7175
80.5822
77.628
74.8406
72.2072
69.7156
67.3549
65.1148
62.9861
60.96
59.0287
57.1848
55.4218
53.7335
52.1142
50.5587
49.0624
47.6208
46.2299
44.886
43.5858
42.3262
41.1043
39.9177
38.764
37.6411
36.5472
35.4806
34.4399
33.4237
32.4311
31.4609
30.5124
29.585
28.678
27.7909
26.9235
26.0753
25.2463
24.4361
23.6448
22.8723
22.1185
21.3835
20.6674
19.9702
19.292
18.633
17.9933
17.3731
16.7725
16.1918
15.6311
15.0907
14.5707
14.0714
13.593
13.1356
12.6995
12.2849
11.892
11.5212
11.1727
10.847
10.5442
10.2631
10.0059
154.999
94.4236
86.3618
86.8591
90.4654
95.5709
101.444
107.708
114.164
120.715
127.32
133.969
140.665
147.416
154.23
161.111
168.06
175.071
182.138
189.248
196.388
203.541
210.689
217.812
224.889
231.9
238.821
245.63
252.305
258.822
265.159
271.295
277.208
282.88
288.296
293.448
298.336
302.976
307.411
311.566
315.399
318.914
322.166
325.281
328.491
332.198
337.052
343.834
353.818
367.646
385.561
407.634
433.57
462.676
493.926
526.102
557.96
588.389
616.521
641.808
664.05
682.878
698.149
709.817
717.88
722.354
723.279
720.733
714.834
705.734
693.637
678.794
661.499
642.077
620.878
598.26
574.579
550.18
525.382
500.478
475.728
451.353
427.541
404.443
382.178
360.833
340.469
321.124
302.814
285.542
269.294
254.047
239.773
226.434
213.992
202.4
191.602
181.545
172.176
163.447
155.313
147.73
140.658
134.06
127.899
122.144
116.763
111.728
107.014
102.595
98.4489
94.5555
90.8951
87.4499
84.2034
81.1404
78.2469
75.5099
72.9174
70.4585
68.123
65.9015
63.7855
61.767
59.8388
57.9942
56.2272
54.532
52.9035
51.337
49.8279
48.3722
46.9662
45.6064
44.2895
43.0128
41.7735
40.5691
39.3975
38.2566
37.1447
36.0602
35.0017
33.968
32.9578
31.9705
31.0051
30.061
29.1376
28.2346
27.3514
26.488
25.644
24.8194
24.014
23.2277
22.4607
21.7129
20.9845
20.2754
19.5859
18.9161
18.2662
17.6363
17.0268
16.4378
15.8695
15.3223
14.7963
14.2919
13.8092
13.3486
12.9102
12.4943
12.1012
11.7311
11.384
11.06
10.7571
10.4782
144.304
90.0436
82.0288
81.8793
84.6793
88.9759
94.09
99.6587
105.481
111.452
117.517
123.658
129.868
136.151
142.509
148.945
155.457
162.042
168.69
175.391
182.131
188.895
195.663
202.417
209.136
215.797
222.378
228.855
235.205
241.403
247.426
253.25
258.853
264.215
269.322
274.162
278.739
283.071
287.208
291.091
294.7
298.062
301.27
304.509
308.115
312.674
319.05
328.303
341.636
359.627
382.483
409.983
441.418
475.645
511.231
546.656
580.509
611.622
639.156
662.619
681.854
697.057
708.421
716.124
720.367
721.343
719.224
714.168
706.327
695.854
682.92
667.721
650.481
631.455
610.917
589.156
566.466
543.136
519.442
495.64
471.961
448.607
425.751
403.535
382.072
361.447
341.724
322.94
305.117
288.261
272.363
257.407
243.365
230.207
217.896
206.394
195.661
185.646
176.3
167.577
159.434
151.83
144.725
138.085
131.874
126.062
120.62
115.518
110.733
106.241
102.02
98.0491
94.3102
90.7857
87.4596
84.3169
81.3441
78.5283
75.8579
73.3221
70.911
68.6152
66.4265
64.3371
62.3397
60.428
58.5959
56.8379
55.1488
53.524
51.959
50.4497
48.9923
47.5834
46.2197
44.8981
43.6158
42.3704
41.1593
39.9807
38.8324
37.7128
36.6203
35.5536
34.5115
33.493
32.4971
31.5231
30.5704
29.6385
28.7269
27.8352
26.9633
26.111
25.278
24.4644
23.6701
22.8951
22.1395
21.4034
20.6869
19.9901
19.3133
18.6566
18.0202
17.4045
16.8097
16.2361
15.684
15.1537
14.6454
14.1595
13.6963
13.256
12.8389
12.4451
12.0746
11.7272
11.4012
11.0989
131.531
85.396
77.9084
77.4489
79.6797
83.3081
87.7337
92.6285
97.8045
103.156
108.626
114.189
119.836
125.564
131.373
137.265
143.238
149.287
155.405
161.583
167.806
174.062
180.332
186.599
192.844
199.046
205.183
211.234
217.177
222.989
228.651
234.141
239.441
244.537
249.419
254.084
258.542
262.817
266.958
271.007
274.997
279.029
283.292
288.111
294.038
301.97
313.046
328.414
348.763
374.39
405.066
439.996
477.88
517.091
555.9
592.697
626.152
655.297
679.551
698.686
712.771
722.125
727.294
728.932
727.431
723.14
716.354
707.312
696.205
683.19
668.412
652.017
634.16
615.015
594.774
573.643
551.836
529.572
507.065
484.517
462.116
440.03
418.404
397.363
377.004
357.406
338.625
320.699
303.65
287.486
272.202
257.784
244.212
231.458
219.491
208.276
197.777
187.956
178.774
170.185
162.151
154.632
147.594
141.003
134.826
129.034
123.599
118.496
113.7
109.189
104.942
100.94
97.1659
93.6018
90.2327
87.0446
84.024
81.159
78.4381
75.8511
73.3882
71.0407
68.8004
66.6598
64.6121
62.6509
60.7706
58.9658
57.2315
55.5631
53.9563
52.407
50.9116
49.4664
48.0682
46.7139
45.4005
44.1254
42.8862
41.6805
40.5063
39.3619
38.2454
37.1555
36.0907
35.0501
34.0325
33.0371
32.0632
31.1102
30.1777
29.2651
28.3722
27.4988
26.6446
25.8096
24.9937
24.1969
23.4193
22.6609
21.9217
21.2021
20.502
19.8218
19.1617
18.5219
17.9028
17.3046
16.7277
16.1724
15.639
15.128
14.6397
14.1743
13.7322
13.3134
12.918
12.5457
12.1955
11.8681
117.321
80.4634
73.9767
73.474
75.3276
78.4267
82.258
86.5376
91.0973
95.838
100.704
105.666
110.712
115.837
121.041
126.324
131.685
137.122
142.63
148.201
153.825
159.49
165.185
170.895
176.604
182.297
187.957
193.57
199.12
204.593
209.978
215.264
220.446
225.525
230.508
235.416
240.282
245.163
250.143
255.34
260.927
267.167
274.438
283.351
294.9
310.444
330.969
356.942
388.435
424.928
465.31
507.995
551.133
592.859
631.507
665.755
694.7
717.853
735.098
746.62
752.819
754.244
751.54
745.425
736.769
726.011
713.52
699.574
684.373
668.064
650.762
632.564
613.564
593.863
573.571
552.812
531.719
510.433
489.098
467.854
446.835
426.164
405.951
386.291
367.262
348.925
331.328
314.502
298.466
283.227
268.783
255.123
242.229
230.079
218.645
207.899
197.807
188.338
179.456
171.128
163.318
155.994
149.123
142.672
136.614
130.92
125.567
120.529
115.785
111.313
107.095
103.113
99.3494
95.7892
92.4179
89.222
86.1893
83.3082
80.568
77.9589
75.4718
73.0984
70.8309
68.6622
66.5857
64.5957
62.6869
60.8541
59.0925
57.3977
55.7656
54.1924
52.6743
51.2077
49.7895
48.4163
47.0853
45.7937
44.5389
43.3186
42.1306
40.9728
39.8435
38.7412
37.6643
36.6116
35.5821
34.5748
33.5888
32.6236
31.6785
30.7531
29.847
28.96
28.0918
27.2422
26.4113
25.5989
24.8051
24.0299
23.2734
22.5357
21.817
21.1175
20.4375
19.7771
19.1367
18.5166
17.9173
17.339
16.7821
16.2471
15.7344
15.2442
14.777
14.3329
13.912
13.5139
13.1382
12.7855
102.825
75.287
70.1681
69.8459
71.4804
74.1734
77.5059
81.242
85.2377
89.4048
93.6907
98.0661
102.517
107.038
111.628
116.29
121.025
125.834
130.715
135.668
140.69
145.775
150.918
156.116
161.361
166.65
171.979
177.347
182.753
188.202
193.701
199.265
204.916
210.684
216.618
222.78
229.265
236.2
243.767
252.226
261.948
273.479
287.621
305.633
329.296
359.077
394.64
435.498
480.488
527.937
575.876
622.29
665.339
703.52
735.762
761.445
780.372
792.703
798.864
799.464
795.21
786.841
775.089
760.657
744.239
726.571
708.09
689.042
669.585
649.82
629.814
609.617
589.266
568.799
548.259
527.7
507.182
486.775
466.554
446.598
426.984
407.788
389.078
370.917
353.354
336.433
320.186
304.633
289.787
275.653
262.227
249.499
237.454
226.072
215.332
205.207
195.671
186.695
178.251
170.308
162.839
155.813
149.204
142.984
137.128
131.611
126.411
121.507
116.878
112.506
108.372
104.462
100.758
97.2484
93.9182
90.7555
87.7491
84.8881
82.1628
79.564
77.0833
74.7129
72.4455
70.2745
68.1939
66.1984
64.2835
62.444
60.6754
58.9737
57.3352
55.7559
54.2325
52.7613
51.3391
49.9628
48.6293
47.3357
46.0795
44.8581
43.6693
42.5109
41.3811
40.2782
39.2006
38.1469
37.1161
36.107
35.1188
34.1508
33.2024
32.2729
31.3621
30.4696
29.5951
28.7385
27.8996
27.0785
26.275
25.4893
24.7213
23.9712
23.2392
22.5253
21.83
21.1533
20.4957
19.8574
19.2389
18.6405
18.0627
17.5059
16.9706
16.4571
15.9659
15.4972
15.0511
14.6276
14.2261
13.849
88.898
69.9409
66.4279
66.4816
68.0479
70.4589
73.3959
76.674
80.1771
83.8313
87.5912
91.4308
95.3377
99.3087
103.346
107.456
111.647
115.927
120.306
124.793
129.398
134.133
139.009
144.039
149.24
154.628
160.226
166.061
172.163
178.573
185.337
192.516
200.183
208.434
217.387
227.201
238.084
250.323
264.313
280.612
300.054
323.885
353.615
391.544
436.053
485.456
538.069
591.994
645.276
695.832
741.822
781.787
814.714
840.055
857.693
867.881
871.163
868.277
860.076
847.442
831.229
812.219
791.108
768.499
744.929
720.905
696.953
673.336
650.11
627.304
604.924
582.966
561.418
540.268
519.507
499.133
479.151
459.573
440.418
421.712
403.482
385.758
368.57
351.945
335.908
320.476
305.666
291.486
277.94
265.027
252.739
241.066
229.994
219.507
209.583
200.201
191.34
182.973
175.078
167.63
160.604
153.975
147.722
141.82
136.247
130.984
126.011
121.308
116.858
112.645
108.653
104.868
101.276
97.864
94.6208
91.535
88.5965
85.7955
83.1233
80.5715
78.1324
75.7989
73.5642
71.4224
69.3677
67.3952
65.5001
63.6781
61.9252
60.2382
58.6141
57.0489
55.5393
54.082
52.6738
51.3115
49.992
48.7124
47.4701
46.2624
45.087
43.9417
42.8245
41.7336
40.6674
39.6245
38.6036
37.6036
36.6237
35.6629
34.7207
33.7965
32.8899
32.0005
31.128
30.2723
29.4332
28.6106
27.8045
27.0149
26.2419
25.4856
24.746
24.0235
23.3181
22.6302
21.9601
21.3081
20.6745
20.0598
19.4646
18.8891
18.334
17.7997
17.2867
16.7953
16.3257
15.8778
15.4516
15.0503
76.0348
64.392
62.6022
63.2205
64.8942
67.181
69.8642
72.8135
75.9458
79.2084
82.5706
86.0178
89.548
93.1687
96.8948
100.746
104.749
108.93
113.323
117.963
122.889
128.145
133.778
139.841
146.393
153.501
161.238
169.69
178.952
189.137
200.372
212.811
226.633
242.056
259.356
278.885
301.105
326.694
356.524
391.864
434.086
486.132
545.586
607.996
670.868
731.767
788.517
839.437
883.61
920.029
948.038
967.405
978.284
981.157
976.76
966.008
949.912
929.501
905.757
879.567
851.694
822.77
793.303
763.696
734.282
705.363
677.277
650.246
624.252
599.259
575.219
552.08
529.787
508.292
487.546
467.512
448.153
429.443
411.36
393.888
377.017
360.739
345.052
329.952
315.439
301.511
288.166
275.398
263.203
251.57
240.49
229.949
219.932
210.424
201.406
192.859
184.763
177.099