/*--------------------------------*- C++ -*----------------------------------*\
| =========                 |                                                 |
| \\      /  F ield         | OpenFOAM: The Open Source CFD Toolbox           |
|  \\    /   O peration     | Version:  1.4.2                                 |
|   \\  /    A nd           | Web:      http://www.openfoam.org               |
|    \\/     M anipulation  |                                                 |
\*---------------------------------------------------------------------------*/
FoamFile
{
    version     2.0;
    format      ascii;
    class       volScalarField;
    object      k;
    location    "150";
}
// * * * * * * * * * * * * * * * * * * * * * * * * * * * * * * * * * * * * * //

dimensions      [0 2 -2 0 0 0 0];

internalField   nonuniform List<scalar> 
12225
(
0.315114
0.271059
0.237875
0.212485
0.192869
0.177651
0.165873
0.156865
0.15022
0.146025
0.146259
0.160442
0.221749
0.37894
0.653801
1.01425
1.79785
2.48298
0.365358
0.357607
0.353812
0.353652
0.356685
0.362566
0.371027
0.381952
0.39582
0.415953
0.459635
0.589491
0.910081
1.45709
2.14668
2.87288
3.61561
4.32913
0.370182
0.364627
0.360176
0.356898
0.354806
0.353914
0.354369
0.356846
0.364238
0.389125
0.478833
0.738992
1.25643
1.99938
2.86135
3.74824
4.61558
5.44361
0.371727
0.367457
0.363468
0.360002
0.357105
0.354932
0.353991
0.356072
0.367995
0.415257
0.571979
0.954442
1.61471
2.48759
3.46275
4.45378
5.415
6.33238
0.372429
0.369023
0.365557
0.362323
0.359466
0.357272
0.356673
0.360898
0.381616
0.458011
0.686349
1.18454
1.97282
2.95995
4.03196
5.10718
6.14383
7.13336
0.372742
0.369915
0.366954
0.364051
0.361429
0.359541
0.359851
0.367385
0.399499
0.510479
0.817445
1.43245
2.34183
3.4329
4.59007
5.73664
6.836
7.88447
0.372873
0.370386
0.367819
0.365274
0.362974
0.361533
0.363044
0.374715
0.420764
0.572707
0.965952
1.69771
2.72031
3.90522
5.13751
6.34568
7.49806
8.59483
0.372914
0.370579
0.36823
0.36593
0.363905
0.362906
0.365593
0.381237
0.440698
0.630608
1.097
1.91946
3.02585
4.27926
5.56645
6.81974
8.01067
9.14177
0.37293
0.370671
0.368451
0.366311
0.364467
0.363717
0.36697
0.384493
0.450557
0.659661
1.16335
2.03385
3.18914
4.48846
5.81805
7.11058
8.33781
9.50168
0.372935
0.370717
0.368578
0.366546
0.364818
0.364168
0.36751
0.385326
0.453127
0.669051
1.18819
2.08198
3.26699
4.60157
5.97015
7.30332
8.57072
9.77157
0.372935
0.370736
0.368639
0.366667
0.364992
0.364317
0.367382
0.384325
0.450361
0.664412
1.1836
2.08218
3.28104
4.64049
6.043
7.4156
8.72413
9.96353
0.372934
0.37074
0.368661
0.366714
0.365043
0.364257
0.366824
0.38221
0.444409
0.651348
1.16114
2.05227
3.25282
4.62731
6.05698
7.46493
8.81232
10.0888
0.372933
0.370739
0.368664
0.366722
0.365027
0.364094
0.366088
0.379706
0.437367
0.634992
1.131
2.00854
3.20279
4.58351
6.03212
7.46846
8.84904
10.1581
0.372933
0.370737
0.368662
0.366715
0.364989
0.363913
0.365387
0.377417
0.43103
0.62007
1.10226
1.96449
3.14773
4.52678
5.98485
7.44001
8.84494
10.1788
0.372933
0.370737
0.368659
0.366708
0.364955
0.363766
0.364838
0.375676
0.426409
0.609442
1.08066
1.92796
3.09658
4.46622
5.92323
7.38563
8.80362
10.1522
0.372935
0.370737
0.368659
0.366703
0.364932
0.363664
0.364455
0.374466
0.423282
0.602279
1.06456
1.89641
3.04589
4.39768
5.84225
7.29914
8.71762
10.07
0.372938
0.37074
0.368662
0.366704
0.36492
0.363598
0.364176
0.373484
0.420321
0.594223
1.04478
1.85648
2.97975
4.30391
5.72396
7.16214
8.56836
9.91375
0.372943
0.370747
0.368668
0.36671
0.364919
0.363555
0.36394
0.372414
0.416032
0.580059
1.01003
1.79177
2.87948
4.16605
5.55034
6.9578
8.34029
9.66953
0.37295
0.370754
0.368677
0.366719
0.364921
0.363512
0.363652
0.370882
0.408939
0.554745
0.947997
1.68185
2.71937
3.957
5.29596
6.66431
8.01616
9.32477
0.372952
0.370758
0.368682
0.366723
0.364916
0.36345
0.363283
0.368918
0.399621
0.520233
0.860516
1.52526
2.49414
3.66924
4.95296
6.27492
7.59097
8.87604
0.372948
0.370755
0.36868
0.366718
0.364894
0.36336
0.36286
0.366834
0.389898
0.483077
0.760767
1.33845
2.21996
3.3173
4.53388
5.8001
7.07303
8.32904
0.372942
0.370748
0.368665
0.366686
0.364827
0.363201
0.362363
0.364822
0.381102
0.449003
0.663182
1.14323
1.9213
2.9257
4.06216
5.26163
6.48197
7.7005
0.372933
0.370726
0.368612
0.366577
0.364632
0.362862
0.361666
0.362804
0.37355
0.420544
0.577166
0.957428
1.62038
2.51768
3.56092
4.68204
5.83915
7.00959
0.372915
0.370656
0.368443
0.366264
0.364138
0.362132
0.360528
0.360511
0.366897
0.397615
0.506106
0.791849
1.33298
2.1105
3.04862
4.08093
5.164
6.27442
0.372861
0.370448
0.367994
0.365518
0.363066
0.360705
0.358635
0.357607
0.360634
0.379103
0.449429
0.650902
1.06895
1.71692
2.53975
3.47349
4.47191
5.51014
0.372699
0.369904
0.366962
0.363978
0.361043
0.358229
0.355666
0.353792
0.354313
0.363812
0.404935
0.535264
0.836875
1.3506
2.04785
2.87233
3.77555
4.72925
0.372236
0.368618
0.364847
0.361135
0.357586
0.354258
0.351224
0.348697
0.34749
0.350822
0.370737
0.444
0.640586
1.02063
1.58443
2.28885
3.08536
3.94094
0.370951
0.365697
0.360563
0.355813
0.351508
0.347677
0.344342
0.341556
0.339584
0.339565
0.346142
0.376706
0.479116
0.723094
1.14202
1.71214
2.38679
3.12787
0.366354
0.357117
0.349253
0.342912
0.338017
0.334444
0.332048
0.330692
0.330297
0.330985
0.333641
0.342368
0.373495
0.471654
0.698113
1.07798
1.5833
2.17708
0.329179
0.293649
0.265353
0.242414
0.22357
0.207924
0.194817
0.183759
0.17438
0.166414
0.159728
0.154507
0.152065
0.157483
0.186249
0.264624
0.417948
0.808203
0.0506964
0.0756063
0.112009
0.151222
0.1878
0.223235
0.257935
0.29208
0.32579
0.359154
0.392242
0.425108
0.457798
0.490351
0.522802
0.555182
0.587524
0.619857
0.652211
0.684613
0.717094
0.74968
0.7824
0.815281
0.848349
0.88163
0.915149
0.94893
0.982995
1.01737
1.05206
1.0871
1.12249
1.15825
1.19439
1.23091
1.26781
1.3051
1.34276
1.38078
1.41915
1.45784
1.49682
1.53608
1.57558
1.61531
1.65524
1.69538
1.73579
1.77649
1.8162
1.85457
1.89128
1.92592
1.9581
1.98738
2.01333
2.03551
2.05351
2.06691
2.07537
2.07858
2.0763
2.06838
2.05474
2.03539
2.01043
1.98005
1.94453
1.90422
1.85953
1.81093
1.75892
1.70405
1.64683
1.58782
1.52755
1.46652
1.40521
1.34404
1.28342
1.22371
1.16534
1.10877
1.05433
1.00325
0.957308
0.915822
0.876854
0.839881
0.804737
0.771345
0.739653
0.709611
0.681168
0.654268
0.628854
0.604864
0.582235
0.560906
0.540811
0.52189
0.504079
0.487319
0.47155
0.456715
0.442759
0.429629
0.417275
0.405648
0.394702
0.384394
0.374681
0.365525
0.356887
0.348733
0.341029
0.333743
0.326845
0.320306
0.314101
0.308204
0.302592
0.297242
0.292133
0.287246
0.282563
0.278067
0.273742
0.269575
0.265551
0.261659
0.257887
0.254226
0.250667
0.247201
0.243823
0.240526
0.237306
0.234157
0.231078
0.228065
0.225118
0.222234
0.219414
0.216657
0.213964
0.211337
0.208776
0.206283
0.20386
0.20151
0.199233
0.197034
0.194913
0.192873
0.190917
0.189045
0.187261
0.185565
0.183958
0.182443
0.181017
0.17968
0.178423
0.177067
0.146837
0.126316
0.111985
0.101734
0.0942462
0.0886672
0.0844245
0.0811196
0.0784606
0.076282
0.0745096
0.0730051
0.0716728
0.0700539
0.0936351
0.177919
0.233696
0.284043
0.332553
0.379467
0.424621
0.468125
0.510254
0.551304
0.591535
0.631166
0.670381
0.709331
0.748147
0.786939
0.825803
0.864826
0.904085
0.94365
0.98359
1.02397
1.06485
1.10629
1.14835
1.19111
1.23462
1.27894
1.32415
1.37032
1.41751
1.46581
1.51528
1.566
1.61806
1.67152
1.72649
1.78302
1.84121
1.90114
1.96287
2.02647
2.092
2.15952
2.22905
2.3006
2.37415
2.44964
2.52696
2.60544
2.68492
2.76503
2.84523
2.92486
3.00314
3.07914
3.15184
3.22014
3.28287
3.33885
3.38693
3.42604
3.45523
3.47372
3.48088
3.47635
3.45997
3.43181
3.39217
3.34159
3.28076
3.21055
3.13195
3.04604
2.95393
2.8568
2.75577
2.65197
2.54645
2.44018
2.33408
2.22892
2.12569
2.0252
1.92732
1.83578
1.75008
1.66925
1.59257
1.51974
1.45062
1.38513
1.32317
1.26465
1.20948
1.15752
1.10865
1.06272
1.0196
0.979128
0.941169
0.905577
0.872212
0.840938
0.811625
0.784146
0.758384
0.734224
0.711557
0.690283
0.670305
0.65153
0.633874
0.617255
0.601596
0.586825
0.572876
0.559683
0.547186
0.53533
0.524061
0.513329
0.503088
0.493293
0.483903
0.474882
0.466192
0.457802
0.449681
0.441801
0.434137
0.426666
0.419367
0.412223
0.405216
0.398333
0.391562
0.384892
0.378316
0.371826
0.365418
0.359089
0.352837
0.34666
0.34056
0.334538
0.328595
0.322735
0.316961
0.311277
0.305687
0.300196
0.294809
0.289529
0.284362
0.279311
0.274381
0.269575
0.264896
0.260347
0.255931
0.251648
0.247501
0.243491
0.239625
0.235855
0.230633
0.225277
0.220322
0.215947
0.212175
0.208958
0.206228
0.203912
0.201925
0.200153
0.198527
0.197053
0.195921
0.195916
0.133901
0.263239
0.338079
0.399359
0.455949
0.510429
0.563272
0.614623
0.664689
0.713717
0.761942
0.809576
0.856795
0.903748
0.950558
0.997331
1.04415
1.0911
1.13824
1.18563
1.23333
1.28139
1.32988
1.37883
1.42833
1.47842
1.52917
1.58064
1.63292
1.68608
1.7402
1.79537
1.85168
1.90924
1.96815
2.02852
2.09046
2.15411
2.21958
2.28702
2.35655
2.42833
2.50248
2.57913
2.65842
2.74044
2.82526
2.91292
3.00339
3.09631
3.19164
3.28907
3.38809
3.488
3.58789
3.68665
3.78302
3.87553
3.96263
4.04266
4.11401
4.17508
4.22444
4.26082
4.28323
4.29092
4.28346
4.26075
4.223
4.17072
4.10469
4.02594
3.93569
3.83528
3.72618
3.60989
3.48789
3.36166
3.23259
3.10192
2.97086
2.8402
2.71085
2.58396
2.46169
2.34476
2.23349
2.12771
2.02724
1.93195
1.84173
1.75648
1.67605
1.60029
1.52904
1.4621
1.39928
1.34037
1.28517
1.23346
1.18505
1.13973
1.09731
1.05761
1.02045
0.985645
0.95305
0.922507
0.893873
0.86701
0.841792
0.818097
0.795812
0.774831
0.755054
0.736386
0.71874
0.702033
0.686187
0.67113
0.656793
0.643113
0.63003
0.617489
0.605437
0.593828
0.582615
0.571758
0.561221
0.550967
0.540967
0.531192
0.521617
0.51222
0.502982
0.493887
0.484919
0.476069
0.467326
0.458684
0.450137
0.441682
0.433318
0.425044
0.416862
0.408774
0.400783
0.392894
0.385111
0.377439
0.369883
0.36245
0.355145
0.347974
0.340943
0.334055
0.327317
0.320733
0.314306
0.308039
0.301936
0.295998
0.290227
0.284622
0.279182
0.273892
0.268565
0.263278
0.258142
0.253245
0.248636
0.244336
0.24035
0.236671
0.233289
0.2302
0.227408
0.225058
0.223485
0.223711
0.165563
0.33051
0.422077
0.493944
0.557743
0.618188
0.676818
0.734149
0.790457
0.845964
0.900861
0.955313
1.00946
1.06341
1.11725
1.17106
1.22489
1.27879
1.33279
1.38692
1.44121
1.49568
1.55037
1.6053
1.66051
1.71604
1.77194
1.82826
1.88507
1.94243
2.00043
2.05915
2.11871
2.1792
2.24076
2.30352
2.36763
2.43325
2.50057
2.56977
2.64106
2.71465
2.79077
2.86965
2.95151
3.03656
3.125
3.21696
3.31255
3.41179
3.51481
3.62142
3.73122
3.84356
3.95755
4.07202
4.18555
4.2965
4.40301
4.50311
4.59475
4.67593
4.74474
4.7995
4.83875
4.86137
4.86657
4.85395
4.82352
4.77565
4.71108
4.63085
4.53629
4.42891
4.31038
4.18245
4.04687
3.90535
3.75958
3.611
3.46116
3.31041
3.16219
3.01748
2.87728
2.7424
2.61327
2.49001
2.37268
2.26126
2.1557
2.0559
1.96173
1.87303
1.78961
1.71124
1.6377
1.56875
1.50416
1.44367
1.38704
1.33405
1.28445
1.23804
1.1946
1.15392
1.11582
1.08011
1.04663
1.01522
0.98571
0.957973
0.93187
0.907276
0.884073
0.862149
0.8414
0.82173
0.803048
0.785267
0.768309
0.752098
0.736565
0.721646
0.70728
0.693412
0.679991
0.66697
0.654306
0.641959
0.629896
0.618083
0.606494
0.595104
0.583892
0.57284
0.561932
0.551158
0.540506
0.529971
0.519548
0.509233
0.499026
0.488927
0.478939
0.469066
0.459311
0.449679
0.440177
0.43081
0.421586
0.412511
0.403592
0.394835
0.386247
0.377834
0.3696
0.361552
0.353694
0.346029
0.33856
0.331291
0.324221
0.317352
0.310679
0.304197
0.297872
0.291704
0.285715
0.279933
0.274384
0.269086
0.264055
0.259302
0.254841
0.250702
0.24693
0.243687
0.241261
0.240356
0.190486
0.381173
0.485687
0.566665
0.636888
0.702297
0.765349
0.827046
0.887871
0.948107
1.00795
1.06754
1.12699
1.18637
1.24574
1.30512
1.36454
1.424
1.4835
1.54301
1.60253
1.66205
1.72154
1.78101
1.84045
1.89987
1.95927
2.0187
2.07817
2.13776
2.1975
2.2575
2.31784
2.37863
2.44001
2.50214
2.56519
2.62935
2.69485
2.76195
2.83091
2.90203
2.97564
3.05206
3.13165
3.21474
3.30166
3.3927
3.48808
3.58825
3.69351
3.80389
3.91913
4.03875
4.16192
4.28754
4.41417
4.54005
4.66317
4.78131
4.8921
4.99317
5.08221
5.15708
5.21586
5.25697
5.27918
5.28171
5.26421
5.22681
5.17006
5.09491
5.00268
4.89497
4.77354
4.64032
4.49731
4.34633
4.18953
4.02802
3.86496
3.70225
3.54154
3.38412
3.23104
3.08308
2.94077
2.80445
2.6743
2.55043
2.43285
2.32152
2.21633
2.11713
2.02374
1.93592
1.85346
1.77608
1.70354
1.63557
1.5719
1.51228
1.45645
1.40417
1.35521
1.30934
1.26635
1.22603
1.1882
1.15267
1.11927
1.08785
1.05825
1.03032
1.00394
0.978989
0.955338
0.932884
0.911522
0.891157
0.8717
0.853067
0.835181
0.81797
0.801366
0.785307
0.769738
0.754607
0.739865
0.725472
0.711387
0.697578
0.684014
0.67067
0.657522
0.644553
0.631746
0.61909
0.606575
0.594194
0.581944
0.569821
0.557826
0.545962
0.53423
0.522635
0.511183
0.49988
0.488733
0.477749
0.466935
0.456301
0.445852
0.435597
0.425542
0.415695
0.406062
0.396648
0.387458
0.378497
0.369769
0.361275
0.353019
0.345
0.337216
0.329666
0.322342
0.315242
0.308367
0.301726
0.29533
0.28919
0.28332
0.277736
0.27246
0.267534
0.263017
0.259046
0.255831
0.253815
0.209188
0.416728
0.529973
0.617689
0.692976
0.762225
0.82849
0.893201
0.957085
1.02054
1.0838
1.14703
1.2103
1.27367
1.33717
1.40079
1.46452
1.5283
1.5921
1.65586
1.71952
1.78301
1.84628
1.90926
1.97191
2.03418
2.09605
2.15749
2.2185
2.27909
2.33929
2.39913
2.4587
2.51809
2.57741
2.63682
2.69649
2.75666
2.81757
2.87951
2.94283
3.00791
3.07516
3.14505
3.21805
3.29466
3.37538
3.46068
3.55095
3.64701
3.74945
3.85852
3.97425
4.09634
4.22417
4.35678
4.49279
4.63049
4.76779
4.90231
5.03145
5.15253
5.26285
5.35984
5.44108
5.50444
5.54813
5.57085
5.57178
5.5507
5.50783
5.44393
5.36018
5.25819
5.13978
5.00693
4.86206
4.70655
4.54411
4.37718
4.20785
4.03809
3.8696
3.70376
3.54172
3.38436
3.23236
3.08619
2.94619
2.81257
2.68542
2.56477
2.45056
2.34267
2.24093
2.14513
2.05504
1.9704
1.89096
1.81644
1.74656
1.68105
1.61965
1.5621
1.50814
1.45754
1.41006
1.36549
1.32362
1.28425
1.2472
1.2123
1.17938
1.14828
1.11886
1.09098
1.06452
1.03936
1.01538
0.992486
0.97057
0.949546
0.929328
0.909838
0.891004
0.872759
0.855041
0.837795
0.820971
0.804523
0.78841
0.772596
0.75705
0.741744
0.726656
0.711766
0.69706
0.682523
0.668148
0.653929
0.639861
0.625943
0.612177
0.598565
0.585111
0.57182
0.558699
0.545756
0.532997
0.520432
0.508068
0.495915
0.483981
0.472273
0.460801
0.449571
0.43859
0.427864
0.417401
0.407203
0.397276
0.387623
0.378247
0.369148
0.360327
0.351783
0.343514
0.335521
0.327801
0.320358
0.313195
0.306321
0.299744
0.293483
0.287561
0.28202
0.276928
0.272366
0.268493
0.265585
0.222124
0.438882
0.556766
0.648466
0.727041
0.798819
0.867122
0.933671
0.999395
1.06481
1.13022
1.19578
1.26159
1.32769
1.39408
1.46074
1.5276
1.5946
1.66166
1.72866
1.79551
1.86211
1.92832
1.99406
2.05921
2.12368
2.18738
2.25023
2.31216
2.37313
2.43311
2.49208
2.55007
2.60712
2.66329
2.71871
2.77353
2.82794
2.88221
2.93664
2.99161
3.04758
3.10505
3.16461
3.2269
3.29262
3.36248
3.43717
3.51735
3.6042
3.69864
3.80127
3.91242
4.03209
4.15994
4.29524
4.4368
4.58299
4.73176
4.88067
5.02698
5.16773
5.29993
5.42055
5.52666
5.61548
5.68456
5.73196
5.75633
5.75687
5.73341
5.6864
5.61677
5.52616
5.41635
5.28895
5.14801
4.99572
4.83485
4.66792
4.49724
4.32489
4.15266
3.9821
3.81451
3.65094
3.49221
3.33897
3.19168
3.05065
2.91608
2.78807
2.66661
2.55163
2.44299
2.34051
2.24398
2.15315
2.06776
1.98754
1.91221
1.84151
1.77514
1.71285
1.65438
1.59947
1.54788
1.49939
1.45377
1.41082
1.37035
1.33216
1.29608
1.26195
1.22962
1.19893
1.16975
1.14195
1.11542
1.09004
1.0657
1.04232
1.01979
0.998041
0.976991
0.956569
0.936711
0.917357
0.898454
0.879955
0.861818
0.844004
0.826481
0.809222
0.792202
0.775403
0.75881
0.742409
0.726194
0.710157
0.694296
0.678611
0.663104
0.647777
0.632636
0.617687
0.602938
0.588396
0.574071
0.559971
0.546105
0.532483
0.519114
0.506007
0.493171
0.480613
0.468341
0.456362
0.444683
0.433309
0.422246
0.411496
0.401065
0.390952
0.381161
0.37169
0.362543
0.353717
0.345213
0.337031
0.329175
0.321648
0.314459
0.307624
0.301164
0.29512
0.289548
0.284501
0.280084
0.276473
0.22984
0.449508
0.568365
0.661301
0.741256
0.814183
0.883398
0.950746
1.01728
1.08359
1.15004
1.21682
1.28403
1.35171
1.41986
1.48842
1.55732
1.62648
1.69577
1.76507
1.83422
1.90309
1.97152
2.03934
2.1064
2.17255
2.23764
2.30153
2.36409
2.42519
2.48474
2.54264
2.59883
2.65328
2.70597
2.75694
2.80627
2.85408
2.90058
2.94605
2.99084
3.03544
3.08041
3.12647
3.17442
3.22521
3.27985
3.33937
3.40478
3.4777
3.5594
3.65088
3.75283
3.86564
3.98927
4.12325
4.26661
4.41787
4.57507
4.73579
4.89717
5.05615
5.20949
5.35384
5.48576
5.60174
5.69858
5.77372
5.82515
5.85139
5.85172
5.82636
5.77547
5.70125
5.60592
5.49168
5.36142
5.21784
5.06368
4.90154
4.73388
4.56292
4.39065
4.21881
4.04887
3.88208
3.71945
3.56175
3.4096
3.26343
3.12353
2.99007
2.86312
2.74265
2.62858
2.52076
2.419
2.32307
2.23273
2.14771
2.06775
1.99258
1.92191
1.85548
1.79302
1.73428
1.67901
1.62698
1.57796
1.53173
1.48809
1.44686
1.40784
1.37087
1.33578
1.30242
1.27064
1.24033
1.21134
1.18356
1.15688
1.13121
1.10643
1.08248
1.05927
1.03672
1.01476
0.993343
0.972404
0.951896
0.931775
0.912004
0.892548
0.87338
0.854476
0.835816
0.817386
0.799175
0.781173
0.763376
0.745782
0.728391
0.711205
0.694228
0.677467
0.660929
0.644621
0.628552
0.612731
0.597168
0.581874
0.566857
0.552127
0.537694
0.523568
0.509756
0.496266
0.483108
0.470286
0.457808
0.44568
0.433906
0.42249
0.411435
0.400744
0.390418
0.380458
0.370867
0.361643
0.352788
0.344303
0.336192
0.328463
0.321126
0.314204
0.307726
0.30174
0.296275
0.291398
0.28722
0.232964
0.45062
0.567365
0.659045
0.738562
0.811329
0.880433
0.947672
1.01412
1.08042
1.14695
1.21394
1.28151
1.34969
1.41849
1.48787
1.55773
1.62797
1.69847
1.76906
1.83958
1.90985
1.97968
2.04887
2.11722
2.18452
2.25058
2.31519
2.37816
2.43929
2.4984
2.55532
2.6099
2.662
2.7115
2.75832
2.80243
2.84383
2.88262
2.91896
2.95314
2.98555
3.01679
3.04763
3.07903
3.11221
3.14858
3.18972
3.23716
3.29306
3.35906
3.43654
3.52659
3.6299
3.7467
3.87666
4.01892
4.17211
4.33441
4.50348
4.67633
4.84993
5.02112
5.18646
5.34223
5.48416
5.60813
5.71119
5.79082
5.84458
5.87096
5.87033
5.84316
5.79088
5.7154
5.61895
5.50416
5.37374
5.2305
5.07714
4.91627
4.75029
4.5814
4.41152
4.24233
4.07525
3.91146
3.75191
3.59732
3.44827
3.30515
3.1682
3.03756
2.91329
2.79533
2.68357
2.57788
2.47804
2.38383
2.29501
2.21132
2.13249
2.05826
1.98837
1.92254
1.86053
1.80208
1.74696
1.69494
1.64581
1.59935
1.55537
1.51368
1.47411
1.43649
1.40066
1.36648
1.3338
1.30251
1.27247
1.24358
1.21574
1.18883
1.16278
1.1375
1.11291
1.08896
1.06556
1.04268
1.02025
0.998232
0.976591
0.955291
0.934303
0.913605
0.893177
0.873004
0.853076
0.833384
0.813924
0.794695
0.775697
0.756934
0.73841
0.720131
0.702105
0.68434
0.666846
0.649633
0.632709
0.616087
0.599775
0.583783
0.568123
0.552802
0.53783
0.523216
0.508967
0.495092
0.481596
0.468487
0.45577
0.443449
0.431528
0.420011
0.4089
0.398197
0.387904
0.378021
0.368551
0.359493
0.350852
0.342633
0.334846
0.327507
0.32064
0.314279
0.30844
0.303154
0.298504
0.232147
0.444322
0.556554
0.644909
0.722447
0.793936
0.862054
0.928407
0.993999
1.05947
1.12521
1.19148
1.2584
1.32606
1.39446
1.46356
1.53329
1.60353
1.67415
1.74498
1.81585
1.88655
1.95687
2.02658
2.09546
2.16325
2.22972
2.29461
2.35768
2.41867
2.47734
2.53343
2.58671
2.63694
2.68391
2.72741
2.76729
2.80341
2.83572
2.86424
2.88909
2.91057
2.92915
2.94558
2.96093
2.97665
2.99464
3.01724
3.04683
3.08617
3.13721
3.20165
3.28085
3.37562
3.48612
3.61184
3.75177
3.90447
4.06828
4.24121
4.41972
4.60127
4.78318
4.96244
5.1358
5.29827
5.44418
5.57088
5.6754
5.7551
5.80821
5.83399
5.83246
5.80446
5.75149
5.67559
5.57918
5.46496
5.33571
5.19426
5.04332
4.88545
4.723
4.55808
4.39255
4.22798
4.06572
3.90685
3.75225
3.60259
3.45837
3.31992
3.18747
3.06112
2.94088
2.82668
2.71843
2.61594
2.51904
2.42748
2.34105
2.25947
2.18251
2.10991
2.0414
1.97674
1.91569
1.85801
1.80348
1.75188
1.70299
1.65663
1.6126
1.57074
1.53086
1.49282
1.45647
1.42166
1.38826
1.35616
1.32523
1.29538
1.2665
1.2385
1.2113
1.18483
1.15901
1.13378
1.10908
1.08486
1.06108
1.0377
1.01469
0.992015
0.969656
0.947592
0.925811
0.9043
0.883054
0.862067
0.841339
0.820871
0.800666
0.780729
0.761068
0.741689
0.722602
0.703815
0.685339
0.667184
0.64936
0.631878
0.614747
0.597978
0.581579
0.565561
0.549932
0.5347
0.519873
0.505458
0.491463
0.477892
0.464751
0.452045
0.439777
0.427951
0.41657
0.405635
0.395148
0.385111
0.375525
0.366392
0.357718
0.349509
0.341777
0.334542
0.327825
0.321639
0.315971
0.310901
0.227936
0.432692
0.538783
0.622335
0.696782
0.766155
0.832577
0.897369
0.961408
1.02529
1.08944
1.1541
1.21946
1.28561
1.35257
1.42033
1.48882
1.55795
1.62758
1.69754
1.76766
1.83773
1.90752
1.97678
2.04528
2.11273
2.17888
2.24343
2.3061
2.3666
2.42463
2.47989
2.53208
2.58089
2.62602
2.6672
2.70416
2.73664
2.76448
2.78755
2.80587
2.81957
2.82902
2.83488
2.83821
2.84064
2.84454
2.85293
2.86983
2.89807
2.93996
2.99741
3.07173
3.16335
3.27183
3.39599
3.53418
3.68469
3.84608
4.01794
4.19452
4.37473
4.5569
4.73862
4.91672
5.08722
5.24581
5.38861
5.51202
5.61283
5.68861
5.73784
5.7599
5.75502
5.72422
5.66918
5.59207
5.49543
5.38197
5.2545
5.11579
4.96847
4.81502
4.65766
4.49837
4.33888
4.18065
4.0249
3.87261
3.72455
3.58133
3.44338
3.31098
3.18429
3.0634
2.9483
2.8389
2.73509
2.6367
2.54354
2.4554
2.37204
2.29323
2.21872
2.14828
2.08167
2.01865
1.95899
1.90247
1.84888
1.79802
1.74969
1.70371
1.6599
1.6181
1.57815
1.5399
1.50322
1.46797
1.43403
1.40129
1.36964
1.33899
1.30924
1.28031
1.25213
1.22462
1.19773
1.17139
1.14556
1.12019
1.09525
1.07069
1.0465
1.02265
0.99912
0.975899
0.952976
0.930344
0.907999
0.885941
0.86417
0.84269
0.821507
0.800626
0.780057
0.759807
0.739885
0.720302
0.701067
0.682192
0.663684
0.645556
0.627816
0.610474
0.593539
0.577019
0.560924
0.54526
0.530035
0.515256
0.500928
0.487059
0.473651
0.46071
0.44824
0.436243
0.424722
0.41368
0.403117
0.393036
0.383438
0.374327
0.36571
0.357595
0.349995
0.342923
0.336388
0.330349
0.324889
0.220499
0.417312
0.516659
0.594827
0.665672
0.732392
0.796543
0.85916
0.920994
0.9826
1.04438
1.10664
1.16956
1.23326
1.29781
1.36321
1.42942
1.49634
1.56387
1.63185
1.70009
1.76841
1.83656
1.90431
1.97139
2.03754
2.10246
2.16586
2.22744
2.28687
2.34385
2.39803
2.4491
2.49671
2.54052
2.58021
2.61546
2.64598
2.67153
2.69194
2.70717
2.7173
2.72265
2.72382
2.72191
2.71873
2.71713
2.72059
2.73457
2.76211
2.80555
2.86658
2.94586
3.04283
3.15586
3.28266
3.42076
3.56799
3.72267
3.88351
4.04908
4.21828
4.38998
4.56261
4.73393
4.90087
5.05979
5.20684
5.33819
5.4503
5.5402
5.60569
5.64549
5.6592
5.64725
5.61084
5.55176
5.47223
5.37478
5.26207
5.13681
5.00162
4.85898
4.71118
4.56026
4.40802
4.25601
4.10555
3.9577
3.81332
3.6731
3.53754
3.40698
3.28168
3.16175
3.04724
2.93812
2.8343
2.73566
2.64204
2.55325
2.46908
2.38933
2.31377
2.24217
2.17431
2.10998
2.04895
1.99101
1.93596
1.8836
1.83375
1.78623
1.74087
1.6975
1.65597
1.61615
1.57789
1.54106
1.50555
1.47125
1.43806
1.40587
1.3746
1.34416
1.31449
1.28551
1.25717
1.2294
1.20216
1.1754
1.14909
1.1232
1.09769
1.07255
1.04775
1.02329
0.999156
0.975337
0.95183
0.928636
0.905756
0.883193
0.860952
0.839039
0.817463
0.796231
0.775353
0.754838
0.734694
0.714933
0.695564
0.676596
0.658039
0.639901
0.622191
0.604919
0.58809
0.571714
0.555797
0.540346
0.525366
0.510864
0.496844
0.48331
0.470267
0.457719
0.445667
0.434115
0.423063
0.412516
0.402473
0.392939
0.383919
0.375418
0.367445
0.360009
0.353109
0.346699
0.340857
0.210271
0.398156
0.491998
0.565745
0.633112
0.696863
0.758259
0.818161
0.877218
0.93594
0.994724
1.05387
1.1136
1.17406
1.23533
1.29745
1.36039
1.42409
1.48846
1.55336
1.61862
1.68405
1.74943
1.81453
1.8791
1.94285
2.00552
2.0668
2.12639
2.18397
2.23922
2.29182
2.34143
2.38773
2.43037
2.46904
2.50344
2.5333
2.5584
2.57862
2.59398
2.60464
2.61103
2.61393
2.61472
2.61576
2.62048
2.63298
2.65811
2.69878
2.75693
2.83328
2.92715
3.03652
3.15851
3.28991
3.42778
3.56987
3.71477
3.86182
4.01079
4.16158
4.31405
4.4677
4.62131
4.77287
4.91959
5.05816
5.18499
5.29653
5.38958
5.46153
5.51055
5.53566
5.53672
5.51437
5.46991
5.40514
5.32226
5.22365
5.11182
4.98926
4.85836
4.72135
4.58027
4.43693
4.29291
4.14954
4.00797
3.86909
3.73366
3.60222
3.47519
3.35286
3.23541
3.12293
3.01544
2.91289
2.81519
2.72222
2.63383
2.54982
2.47003
2.39425
2.32227
2.2539
2.18892
2.12714
2.06836
2.01238
1.95903
1.90812
1.8595
1.81298
1.76842
1.72568
1.68462
1.6451
1.60701
1.57023
1.53465
1.50017
1.46671
1.43417
1.40248
1.37156
1.34135
1.31179
1.28282
1.2544
1.22649
1.19905
1.17204
1.14544
1.11924
1.0934
1.06793
1.0428
1.01801
0.993561
0.969448
0.945672
0.922237
0.899147
0.876408
0.854027
0.832012
0.810371
0.789113
0.768246
0.74778
0.727724
0.708087
0.688877
0.670103
0.651772
0.633893
0.616472
0.599518
0.583035
0.567031
0.55151
0.536478
0.521941
0.507901
0.494363
0.48133
0.468806
0.456793
0.445292
0.434308
0.423841
0.413896
0.404475
0.395585
0.38723
0.379415
0.372135
0.365352
0.359117
0.197708
0.375665
0.466072
0.537088
0.601492
0.662236
0.72063
0.777482
0.833386
0.888813
0.944144
0.999681
1.05566
1.11224
1.16954
1.22761
1.28646
1.34606
1.40632
1.46714
1.52838
1.58986
1.65139
1.71275
1.77371
1.83402
1.8934
1.9516
2.00832
2.06327
2.11616
2.1667
2.21459
2.25955
2.30131
2.33961
2.37424
2.40504
2.43191
2.4549
2.47421
2.49025
2.50376
2.51596
2.52886
2.54566
2.57018
2.60683
2.65855
2.7271
2.81286
2.91465
3.0299
3.15513
3.28656
3.42074
3.555
3.68767
3.81814
3.94663
4.0739
4.20088
4.32834
4.45661
4.58535
4.71339
4.83879
4.9589
5.07068
5.17091
5.2565
5.32479
5.37368
5.40182
5.40861
5.39418
5.35935
5.30544
5.2342
5.14766
5.04802
4.93749
4.81828
4.69246
4.56196
4.42852
4.29367
4.15875
4.02487
3.89298
3.76382
3.63799
3.51595
3.39801
3.28441
3.17527
3.07066
2.97056
2.87492
2.78365
2.69664
2.61373
2.53476
2.45957
2.38797
2.31978
2.25482
2.1929
2.13385
2.07749
2.02364
1.97215
1.92285
1.8756
1.83026
1.78667
1.74473
1.70429
1.66525
1.62751
1.59095
1.55548
1.52103
1.4875
1.45482
1.42292
1.39174
1.36123
1.33132
1.30198
1.27316
1.24484
1.21697
1.18954
1.16251
1.13588
1.10963
1.08375
1.05824
1.03308
1.00828
0.983842
0.959761
0.936046
0.912699
0.889729
0.867141
0.844943
0.823142
0.801748
0.780768
0.760211
0.740084
0.720394
0.701151
0.68236
0.664029
0.646165
0.628772
0.611858
0.595427
0.579484
0.564034
0.549081
0.534629
0.52068
0.507239
0.494309
0.481891
0.469989
0.458605
0.447742
0.437404
0.427593
0.418315
0.409573
0.401369
0.393696
0.386534
0.379895
0.183226
0.351653
0.439811
0.509138
0.571245
0.62931
0.684809
0.738591
0.791244
0.843222
0.894892
0.946558
0.998457
1.05077
1.10364
1.15714
1.2113
1.26612
1.32157
1.37755
1.43397
1.49068
1.54753
1.60433
1.66089
1.71701
1.77244
1.82698
1.88039
1.93242
1.98287
2.03149
2.07809
2.12248
2.16451
2.20405
2.24107
2.27559
2.30778
2.33794
2.36665
2.39475
2.42357
2.45513
2.49267
2.54032
2.60151
2.67816
2.77091
2.87889
2.99971
3.12984
3.26511
3.40136
3.53508
3.66366
3.78567
3.90079
4.00965
4.11359
4.21428
4.31343
4.41243
4.51214
4.61266
4.71331
4.81265
4.90861
4.99869
5.08014
5.15026
5.20662
5.24718
5.27051
5.27578
5.26278
5.23193
5.18412
5.12068
5.0432
4.95349
4.85345
4.74497
4.62989
4.50994
4.38672
4.26163
4.13594
4.01071
3.88685
3.76509
3.64604
3.53015
3.41779
3.30919
3.20451
3.10386
3.00725
2.91467
2.82606
2.74133
2.66036
2.58303
2.50918
2.43867
2.37134
2.30703
2.24557
2.1868
2.13057
2.07673
2.02512
1.9756
1.92804
1.8823
1.83826
1.79579
1.75479
1.71515
1.67676
1.63955
1.6034
1.56826
1.53404
1.50066
1.46807
1.43621
1.40502
1.37446
1.34447
1.31503
1.28609
1.25763
1.22963
1.20205
1.17489
1.14813
1.12176
1.09577
1.07016
1.04492
1.02006
0.995578
0.971471
0.947748
0.924414
0.901473
0.878934
0.856801
0.835083
0.813787
0.79292
0.772489
0.752501
0.732961
0.713878
0.695255
0.6771
0.659417
0.642211
0.625486
0.609247
0.593496
0.578238
0.563475
0.54921
0.535446
0.522185
0.509431
0.497185
0.485451
0.474231
0.46353
0.453351
0.443699
0.434576
0.425983
0.417915
0.410356
0.403321
0.16782
0.327384
0.413902
0.482114
0.5425
0.598364
0.65132
0.702284
0.75186
0.800501
0.848569
0.896363
0.944129
0.992064
1.04032
1.08901
1.1382
1.18792
1.23818
1.28894
1.34015
1.39173
1.44357
1.49556
1.54756
1.59945
1.65107
1.70229
1.75297
1.80297
1.85218
1.90051
1.94788
1.99429
2.03976
2.08439
2.12841
2.17215
2.21616
2.26124
2.30854
2.35972
2.41717
2.48459
2.56694
2.66592
2.78077
2.90998
3.05047
3.19801
3.34784
3.49527
3.63626
3.76778
3.88799
3.99629
4.09317
4.18002
4.25885
4.33199
4.4018
4.47038
4.53933
4.60957
4.68127
4.7538
4.82589
4.89576
4.96128
5.02017
5.07019
5.1093
5.13577
5.14831
5.14612
5.12888
5.09677
5.05036
4.99062
4.91876
4.83619
4.74443
4.64504
4.53955
4.42945
4.3161
4.20075
4.08451
3.96835
3.85309
3.73943
3.62793
3.51904
3.41311
3.3104
3.21109
3.11528
3.02303
2.93435
2.84921
2.76754
2.68927
2.61428
2.54247
2.47371
2.40785
2.34477
2.28433
2.22639
2.1708
2.11745
2.06618
2.01689
1.96944
1.92371
1.8796
1.83699
1.7958
1.75591
1.71724
1.6797
1.64322
1.60771
1.57311
1.53936
1.5064
1.47416
1.4426
1.41168
1.38135
1.35158
1.32233
1.29357
1.26528
1.23744
1.21003
1.18304
1.15645
1.13026
1.10446
1.07905
1.05402
1.02938
1.00513
0.981273
0.957809
0.934745
0.912086
0.889838
0.868006
0.846598
0.825619
0.805075
0.784971
0.765314
0.746109
0.72736
0.709072
0.69125
0.673897
0.657016
0.64061
0.624683
0.609236
0.594272
0.579793
0.5658
0.552297
0.539284
0.526766
0.514743
0.503221
0.492203
0.481693
0.471695
0.462214
0.453249
0.444796
0.436845
0.429443
0.152311
0.303613
0.388801
0.456297
0.515513
0.569758
0.620717
0.669349
0.716273
0.761944
0.806725
0.850918
0.894779
0.938524
0.982339
1.02637
1.07074
1.11555
1.16085
1.20669
1.25311
1.30011
1.34768
1.39582
1.44452
1.49377
1.54354
1.59385
1.64471
1.69615
1.74824
1.80109
1.85486
1.90978
1.96617
2.0245
2.08538
2.14967
2.21856
2.2937
2.37736
2.47295
2.58451
2.71793
2.8688
3.03253
3.20457
3.37946
3.55151
3.71555
3.86734
4.0039
4.12353
4.22585
4.31158
4.38243
4.44078
4.48944
4.53138
4.56946
4.6062
4.64358
4.68291
4.72477
4.76897
4.8147
4.86056
4.90483
4.94562
4.98102
5.0092
5.02857
5.03781
5.03593
5.02232
4.99672
4.95925
4.91033
4.85065
4.78111
4.7028
4.61687
4.52455
4.42705