/*--------------------------------*- C++ -*----------------------------------*\
| =========                 |                                                 |
| \\      /  F ield         | OpenFOAM: The Open Source CFD Toolbox           |
|  \\    /   O peration     | Version:  1.4.2                                 |
|   \\  /    A nd           | Web:      http://www.openfoam.org               |
|    \\/     M anipulation  |                                                 |
\*---------------------------------------------------------------------------*/
FoamFile
{
    version     2.0;
    format      ascii;
    class       volScalarField;
    object      p;
    location    "150";
}
// * * * * * * * * * * * * * * * * * * * * * * * * * * * * * * * * * * * * * //

dimensions      [0 2 -2 0 0 0 0];

internalField   nonuniform List<scalar> 
12225
(
1.10729
0.274427
0.0373881
-0.0414562
-0.122729
-0.196975
-0.255885
-0.307353
-0.364375
-0.444616
-0.566806
-0.729782
-0.895222
-1.00396
-1.0112
-0.907391
-0.741817
-0.460011
0.940929
0.267296
0.0394549
-0.0430143
-0.123305
-0.195789
-0.253345
-0.30327
-0.357094
-0.428215
-0.52546
-0.641986
-0.753264
-0.825769
-0.825849
-0.738118
-0.599915
-0.407721
0.761774
0.271439
0.0505299
-0.0403231
-0.120627
-0.191237
-0.246843
-0.292851
-0.336841
-0.385936
-0.443949
-0.507604
-0.567769
-0.613579
-0.626299
-0.579661
-0.483242
-0.31432
0.60404
0.25351
0.0476817
-0.0472503
-0.125667
-0.193157
-0.245818
-0.286877
-0.320036
-0.347779
-0.371788
-0.392831
-0.412782
-0.43396
-0.446685
-0.422946
-0.3558
-0.221607
0.472853
0.220738
0.0359459
-0.0592184
-0.13485
-0.19878
-0.24811
-0.284411
-0.308907
-0.322086
-0.325871
-0.324
-0.32271
-0.32735
-0.332082
-0.31445
-0.263198
-0.163804
0.357556
0.178565
0.0178588
-0.0747596
-0.147099
-0.207465
-0.253641
-0.285968
-0.304145
-0.308112
-0.300516
-0.287067
-0.275554
-0.270897
-0.268548
-0.252466
-0.212369
-0.143441
0.254014
0.129446
-0.00630284
-0.0938801
-0.162435
-0.219236
-0.262501
-0.291654
-0.30553
-0.303958
-0.289998
-0.270612
-0.254337
-0.245613
-0.240714
-0.228381
-0.200251
-0.158296
0.174028
0.0835196
-0.0317719
-0.113285
-0.178163
-0.231963
-0.273115
-0.300467
-0.312544
-0.309321
-0.294171
-0.27466
-0.259217
-0.251665
-0.248862
-0.242635
-0.22632
-0.206833
0.108716
0.0409439
-0.0573533
-0.133046
-0.19443
-0.245593
-0.285113
-0.311523
-0.323373
-0.321022
-0.308317
-0.292939
-0.282414
-0.279426
-0.281127
-0.281803
-0.277177
-0.276374
0.0428113
-0.00670374
-0.0882784
-0.157355
-0.214851
-0.263333
-0.30147
-0.327683
-0.340751
-0.341239
-0.332955
-0.322871
-0.317581
-0.319292
-0.326068
-0.334418
-0.342406
-0.358934
-0.0233851
-0.0589501
-0.12501
-0.186819
-0.240234
-0.28618
-0.323459
-0.350573
-0.366534
-0.371794
-0.369322
-0.364801
-0.364069
-0.369674
-0.381188
-0.397104
-0.417293
-0.449257
-0.0896582
-0.115115
-0.167652
-0.22202
-0.271378
-0.315194
-0.352339
-0.381606
-0.40209
-0.413796
-0.418289
-0.419693
-0.423169
-0.432159
-0.447948
-0.47074
-0.501787
-0.546733
-0.155919
-0.174419
-0.21596
-0.263336
-0.308991
-0.351319
-0.389277
-0.421904
-0.448279
-0.467516
-0.479661
-0.487223
-0.494874
-0.507067
-0.526673
-0.555378
-0.595264
-0.650103
-0.222051
-0.235978
-0.269282
-0.310748
-0.353458
-0.395205
-0.434999
-0.472043
-0.505219
-0.53253
-0.552472
-0.56623
-0.578205
-0.593719
-0.616917
-0.650522
-0.696929
-0.758401
-0.287531
-0.298651
-0.326415
-0.363624
-0.404519
-0.446769
-0.489404
-0.531691
-0.572083
-0.607525
-0.635082
-0.655003
-0.671601
-0.690815
-0.717565
-0.755123
-0.805797
-0.870731
-0.351021
-0.360657
-0.385318
-0.42025
-0.46078
-0.504713
-0.551088
-0.599077
-0.646658
-0.689869
-0.724727
-0.750811
-0.772374
-0.795688
-0.826002
-0.866686
-0.919578
-0.985177
-0.409768
-0.418959
-0.442678
-0.477442
-0.519232
-0.566019
-0.616817
-0.670616
-0.724983
-0.775331
-0.817055
-0.84919
-0.875818
-0.903304
-0.936923
-0.979758
-1.03291
-1.09663
-0.454966
-0.464599
-0.489396
-0.526025
-0.570572
-0.620989
-0.676239
-0.735187
-0.795193
-0.851525
-0.899335
-0.937226
-0.968952
-1.00081
-1.03797
-1.08306
-1.13633
-1.19797
-0.479323
-0.490124
-0.517661
-0.557778
-0.606062
-0.660315
-0.719469
-0.782345
-0.84645
-0.907388
-0.96051
-1.00413
-1.04149
-1.07865
-1.12062
-1.16952
-1.22479
-1.28644
-0.484351
-0.497123
-0.529012
-0.573994
-0.62668
-0.684814
-0.747331
-0.813072
-0.879872
-0.943937
-1.0012
-1.04998
-1.09293
-1.13584
-1.1836
-1.2379
-1.29747
-1.36183
-0.473339
-0.489288
-0.527627
-0.578912
-0.636649
-0.698806
-0.764428
-0.832412
-0.900913
-0.966839
-1.02694
-1.07991
-1.12809
-1.17693
-1.23123
-1.29234
-1.35831
-1.42793
-0.448451
-0.469595
-0.517156
-0.576154
-0.639414
-0.705752
-0.774465
-0.844454
-0.914155
-0.98115
-1.04301
-1.09913
-1.15204
-1.20693
-1.26843
-1.33752
-1.41159
-1.4886
-0.410838
-0.440632
-0.500911
-0.568702
-0.637611
-0.70819
-0.780026
-0.852032
-0.922933
-0.99083
-1.05394
-1.11251
-1.16968
-1.23066
-1.29975
-1.37756
-1.46108
-1.54725
-0.360729
-0.404854
-0.481908
-0.558876
-0.633144
-0.707857
-0.782771
-0.856909
-0.929344
-0.998572
-1.06324
-1.12426
-1.18558
-1.25263
-1.32939
-1.41629
-1.5102
-1.60699
-0.297543
-0.364824
-0.462803
-0.548335
-0.627269
-0.705839
-0.783676
-0.86001
-0.934415
-1.00583
-1.0732
-1.13772
-1.20375
-1.27688
-1.36108
-1.45714
-1.56203
-1.6705
-0.220043
-0.323428
-0.445615
-0.537948
-0.620542
-0.702503
-0.782907
-0.861351
-0.938128
-1.0128
-1.08462
-1.15464
-1.22687
-1.30669
-1.39847
-1.50404
-1.62059
-1.74163
-0.125191
-0.284677
-0.431785
-0.527799
-0.613006
-0.697904
-0.780486
-0.860882
-0.940356
-1.01944
-1.09807
-1.17697
-1.25905
-1.34881
-1.45091
-1.56816
-1.69696
-1.82927
-0.00163407
-0.254524
-0.423994
-0.518912
-0.605548
-0.692992
-0.777398
-0.85949
-0.941703
-1.02614
-1.1147
-1.20918
-1.31127
-1.42284
-1.54606
-1.68073
-1.81902
-1.95389
0.158881
-0.243993
-0.43116
-0.519869
-0.60607
-0.694953
-0.780321
-0.863383
-0.947651
-1.03692
-1.13608
-1.25061
-1.38318
-1.53163
-1.68942
-1.84409
-1.97849
-2.0913
0.321661
-0.227475
-0.431101
-0.517107
-0.603878
-0.694159
-0.780394
-0.864087
-0.94924
-1.04028
-1.14374
-1.26926
-1.42704
-1.61862
-1.82821
-2.02596
-2.18122
-2.28617
-1.78926
-1.80402
-1.83206
-1.87823
-1.94634
-2.03801
-2.15401
-2.29445
-2.45895
-2.64673
-2.85668
-3.08743
-3.33748
-3.60516
-3.88874
-4.18647
-4.49659
-4.81736
-5.14712
-5.48424
-5.82715
-6.17435
-6.5244
-6.87589
-7.22748
-7.5778
-7.92555
-8.26939
-8.60794
-8.9398
-9.26351
-9.5775
-9.88009
-10.1695
-10.4437
-10.7006
-10.9379
-11.1529
-11.3429
-11.5048
-11.6352
-11.7305
-11.7868
-11.7999
-11.7655
-11.679
-11.5365
-11.3335
-11.0648
-10.7249
-10.31
-9.81779
-9.24706
-8.59802
-7.87231
-7.0731
-6.20517
-5.2748
-4.28967
-3.25872
-2.19184
-1.09966
0.00682554
1.11654
2.21869
3.30299
4.36002
5.38133
6.3597
7.2892
8.16524
8.98455
9.74512
10.4461
11.0879
11.6714
12.1988
12.6726
13.0958
13.4719
13.8047
14.0978
14.3552
14.5801
14.7762
14.9515
15.1083
15.2435
15.3583
15.4554
15.5372
15.6057
15.663
15.7106
15.7501
15.7828
15.8098
15.832
15.8503
15.8654
15.8779
15.8884
15.8974
15.905
15.9118
15.9179
15.9236
15.9291
15.9345
15.9399
15.9454
15.9511
15.9571
15.9635
15.9701
15.9772
15.9846
15.9924
16.0005
16.009
16.0179
16.0271
16.0366
16.0464
16.0564
16.0666
16.077
16.0876
16.0982
16.1089
16.1196
16.1302
16.1409
16.1514
16.1618
16.172
16.182
16.1918
16.2013
16.2105
16.2194
16.2279
16.236
16.2437
16.251
16.2578
16.2642
16.2701
16.2755
16.2803
16.2847
16.2885
16.2918
16.2945
16.2966
16.2981
16.299
16.2993
16.299
16.2979
16.2962
16.2939
16.2908
16.2871
16.2828
16.2786
16.2737
16.2672
16.2598
16.252
16.2441
16.2366
16.2298
16.2245
16.2217
16.2227
16.2306
16.2504
16.2937
16.368
-1.70393
-1.74547
-1.78053
-1.81834
-1.87553
-1.95755
-2.06535
-2.19885
-2.35748
-2.54024
-2.74584
-2.97278
-3.2194
-3.48392
-3.76455
-4.05947
-4.36692
-4.68514
-5.01246
-5.34728
-5.68805
-6.0333
-6.38163
-6.73169
-7.08218
-7.43182
-7.77934
-8.12346
-8.46288
-8.79629
-9.12229
-9.43941
-9.74608
-10.0406
-10.3211
-10.5857
-10.832
-11.0578
-11.2604
-11.4368
-11.584
-11.6984
-11.7765
-11.8142
-11.8073
-11.7515
-11.643
-11.4771
-11.2479
-10.9498
-10.5792
-10.1334
-9.61086
-9.01102
-8.33482
-7.58464
-6.76436
-5.8794
-4.93658
-3.94402
-2.91091
-1.84725
-0.76357
0.329392
1.421
2.50102
3.55988
4.5889
5.58048
6.52822
7.42697
8.27287
9.0633
9.7968
10.473
11.0924
11.6565
12.1672
12.6272
13.0395
13.4071
13.7331
14.0212
14.2757
14.5018
14.7012
14.8744
15.0244
15.154
15.2655
15.3613
15.4433
15.5134
15.5731
15.6239
15.6671
15.7038
15.735
15.7616
15.7843
15.8038
15.8207
15.8353
15.8483
15.8598
15.8702
15.8798
15.8888
15.8974
15.9056
15.9137
15.9218
15.9299
15.9381
15.9464
15.9549
15.9637
15.9727
15.9819
15.9914
16.0012
16.0111
16.0213
16.0317
16.0423
16.053
16.0639
16.0748
16.0858
16.0968
16.1079
16.1188
16.1297
16.1405
16.1512
16.1616
16.1719
16.1819
16.1916
16.201
16.21
16.2188
16.2271
16.235
16.2425
16.2495
16.2561
16.2622
16.2678
16.2728
16.2774
16.2814
16.2849
16.2878
16.2901
16.2918
16.2929
16.2933
16.2931
16.2923
16.2907
16.2885
16.2856
16.282
16.2776
16.2719
16.2653
16.2589
16.2522
16.2451
16.238
16.231
16.2247
16.2197
16.2172
16.2185
16.2264
16.2453
16.285
16.338
-1.64962
-1.72503
-1.79861
-1.86518
-1.94369
-2.0414
-2.16043
-2.30163
-2.46512
-2.6504
-2.85657
-3.08241
-3.32655
-3.58744
-3.86351
-4.15313
-4.45469
-4.76663
-5.08741
-5.41559
-5.74972
-6.08846
-6.43049
-6.77456
-7.11943
-7.46389
-7.80672
-8.14672
-8.48264
-8.81322
-9.13712
-9.45293
-9.75914
-10.0541
-10.3362
-10.6034
-10.8536
-11.0846
-11.2938
-11.4786
-11.6359
-11.7624
-11.8547
-11.9087
-11.9206
-11.8861
-11.8016
-11.6621
-11.4612
-11.1931
-10.8541
-10.4411
-9.95217
-9.38622
-8.74368
-8.02637
-7.23765
-6.3824
-5.46699
-4.49914
-3.48773
-2.44254
-1.37395
-0.292616
0.790855
1.86622
2.92385
3.95495
4.9518
5.90781
6.81764
7.67721
8.48367
9.23528
9.93139
10.5723
11.1589
11.6931
12.1769
12.6128
13.0035
13.3526
13.6662
13.9478
14.1982
14.4193
14.6139
14.7842
14.9331
15.0628
15.1755
15.2733
15.358
15.4312
15.4944
15.549
15.5961
15.6368
15.6721
15.7026
15.7292
15.7525
15.773
15.7911
15.8074
15.8221
15.8355
15.8479
15.8595
15.8706
15.8812
15.8915
15.9016
15.9116
15.9215
15.9315
15.9415
15.9517
15.962
15.9724
15.9829
15.9937
16.0045
16.0155
16.0267
16.0379
16.0492
16.0605
16.0719
16.0833
16.0946
16.1059
16.1171
16.1282
16.139
16.1498
16.1602
16.1705
16.1804
16.1901
16.1994
16.2083
16.2168
16.225
16.2327
16.2399
16.2467
16.253
16.2588
16.2641
16.2689
16.2731
16.2768
16.2798
16.2823
16.2842
16.2855
16.2861
16.2861
16.2854
16.2841
16.282
16.2793
16.2758
16.2715
16.2663
16.2606
16.2546
16.2481
16.2411
16.2339
16.2268
16.2203
16.2149
16.2118
16.2123
16.2185
16.2334
16.2634
16.2918
-1.7014
-1.80156
-1.90063
-1.98683
-2.08234
-2.19464
-2.32556
-2.47598
-2.64618
-2.83591
-3.04449
-3.27099
-3.51427
-3.77305
-4.04596
-4.33162
-4.62862
-4.93558
-5.25113
-5.57397
-5.9028
-6.23637
-6.5735
-6.91301
-7.25374
-7.59456
-7.93432
-8.27186
-8.60602
-8.93557
-9.25925
-9.5757
-9.88348
-10.181
-10.4667
-10.7387
-10.9949
-11.2333
-11.4512
-11.6462
-11.8152
-11.955
-12.0621
-12.1327
-12.1625
-12.1476
-12.084
-11.9663
-11.7876
-11.5415
-11.2239
-10.8314
-10.3615
-9.81275
-9.18509
-8.48004
-7.70071
-6.85187
-5.9399
-4.97264
-3.95921
-2.90972
-1.8349
-0.745788
0.346693
1.432
2.50025
3.54248
4.5508
5.51854
6.44029
7.31189
8.13051
8.89439
9.60279
10.256
10.8547
11.4007
11.8959
12.3432
12.7472
13.1135
13.4449
13.7408
14.0042
14.238
14.4448
14.6272
14.7874
14.9279
15.0508
15.1581
15.2516
15.333
15.4039
15.4655
15.5191
15.5658
15.6065
15.642
15.6732
15.7007
15.725
15.7466
15.766
15.7836
15.7997
15.8145
15.8283
15.8413
15.8536
15.8655
15.8771
15.8884
15.8995
15.9106
15.9216
15.9327
15.9437
15.9549
15.9661
15.9775
15.9889
16.0004
16.012
16.0236
16.0353
16.047
16.0587
16.0704
16.082
16.0936
16.105
16.1164
16.1275
16.1384
16.1491
16.1596
16.1698
16.1796
16.1891
16.1982
16.207
16.2153
16.2232
16.2306
16.2376
16.2441
16.2501
16.2556
16.2605
16.2649
16.2688
16.272
16.2747
16.2768
16.2782
16.279
16.2791
16.2786
16.2774
16.2755
16.2729
16.2695
16.2654
16.2605
16.255
16.2491
16.2426
16.2356
16.2283
16.2211
16.2143
16.2085
16.2045
16.2034
16.2067
16.2158
16.2342
16.2417
-1.87038
-1.98462
-2.09758
-2.1949
-2.30092
-2.42306
-2.5626
-2.72009
-2.89563
-3.08892
-3.29934
-3.52607
-3.76814
-4.02446
-4.29387
-4.57518
-4.86718
-5.16868
-5.47846
-5.79538
-6.1183
-6.4461
-6.77771
-7.11205
-7.44804
-7.78465
-8.1208
-8.45542
-8.78741
-9.11562
-9.43884
-9.7558
-10.0651
-10.3653
-10.6549
-10.9319
-11.1946
-11.4408
-11.6682
-11.8741
-12.0556
-12.2096
-12.3325
-12.4204
-12.4689
-12.474
-12.4313
-12.3352
-12.1777
-11.9517
-11.6525
-11.2761
-10.8195
-10.2807
-9.65946
-8.95696
-8.17627
-7.32228
-6.40164
-5.4227
-4.39515
-3.32978
-2.23797
-1.1313
-0.021166
1.08151
2.16654
3.22473
4.24807
5.22991
6.16479
7.04858
7.87858
8.65306
9.3712
10.0334
10.6402
11.1942
11.6987
12.1591
12.5784
12.9567
13.2966
13.6006
13.8718
14.113
14.3271
14.5165
14.6835
14.8306
14.9597
15.073
15.1721
15.2589
15.3347
15.401
15.459
15.5098
15.5543
15.5933
15.6278
15.6583
15.6853
15.7095
15.7313
15.751
15.769
15.7856
15.8011
15.8156
15.8293
15.8425
15.8552
15.8676
15.8797
15.8916
15.9035
15.9152
15.927
15.9388
15.9506
15.9624
15.9743
15.9863
15.9983
16.0103
16.0223
16.0344
16.0464
16.0584
16.0703
16.0821
16.0938
16.1054
16.1168
16.1279
16.1388
16.1495
16.1599
16.1699
16.1796
16.1889
16.1978
16.2063
16.2144
16.222
16.2292
16.2359
16.242
16.2477
16.2528
16.2573
16.2613
16.2648
16.2676
16.2698
16.2714
16.2724
16.2726
16.2723
16.2712
16.2694
16.2669
16.2637
16.2597
16.255
16.2496
16.2436
16.2371
16.2301
16.2228
16.2153
16.208
16.2014
16.196
16.1927
16.1923
16.195
16.2018
16.1925
-2.13289
-2.25263
-2.37174
-2.47472
-2.58609
-2.71318
-2.857
-3.0179
-3.19584
-3.39041
-3.60096
-3.82671
-4.06674
-4.32009
-4.58575
-4.86268
-5.14981
-5.44609
-5.75045
-6.06187
-6.37936
-6.7019
-7.02852
-7.35823
-7.69006
-8.02304
-8.35619
-8.68851
-9.01894
-9.34642
-9.66979
-9.98787
-10.2994
-10.6029
-10.8969
-11.1797
-11.4494
-11.7042
-11.9415
-12.1589
-12.3536
-12.5223
-12.6615
-12.7671
-12.8346
-12.8596
-12.8376
-12.7624
-12.6249
-12.4168
-12.1327
-11.7681
-11.3193
-10.7839
-10.1614
-9.45269
-8.66108
-7.79178
-6.85204
-5.851
-4.79936
-3.70888
-2.5918
-1.46038
-0.326567
0.798251
1.90354
2.97986
4.01918
5.01503
5.96198
6.8559
7.69455
8.4762
9.20023
9.86812
10.4814
11.0456
11.5628
12.0327
12.458
12.8412
13.1856
13.4942
13.7699
14.0157
14.2342
14.4279
14.5994
14.7508
14.8842
15.0015
15.1047
15.1953
15.2749
15.3447
15.406
15.4599
15.5074
15.5493
15.5863
15.6192
15.6486
15.6749
15.6986
15.7202
15.7399
15.7581
15.775
15.7908
15.8058
15.8201
15.8339
15.8472
15.8602
15.873
15.8856
15.898
15.9104
15.9228
15.9352
15.9475
15.9599
15.9723
15.9847
15.9971
16.0095
16.0219
16.0343
16.0466
16.0588
16.0709
16.0828
16.0946
16.1062
16.1176
16.1288
16.1396
16.1502
16.1604
16.1703
16.1798
16.1889
16.1976
16.2059
16.2137
16.221
16.2279
16.2342
16.24
16.2453
16.25
16.2542
16.2577
16.2607
16.2631
16.2649
16.266
16.2664
16.2662
16.2653
16.2636
16.2613
16.2581
16.2543
16.2496
16.2443
16.2384
16.2318
16.2246
16.217
16.2091
16.2012
16.1935
16.1865
16.1806
16.1761
16.1721
16.1685
16.1454
-2.45774
-2.57565
-2.69467
-2.79897
-2.91144
-3.03926
-3.18345
-3.34431
-3.52173
-3.71522
-3.9241
-4.14755
-4.3847
-4.63461
-4.89635
-5.16896
-5.45146
-5.74292
-6.04238
-6.34894
-6.66167
-6.97966
-7.30203
-7.62787
-7.95631
-8.28644
-8.61736
-8.94811
-9.27773
-9.60521
-9.92946
-10.2494
-10.5637
-10.8711
-11.1702
-11.4593
-11.7367
-12.0005
-12.2484
-12.4779
-12.6862
-12.8701
-13.026
-13.1498
-13.2367
-13.2819
-13.2807
-13.2263
-13.1081
-12.9165
-12.6455
-12.2898
-11.8451
-11.3086
-10.6791
-9.95777
-9.14804
-8.2557
-7.28882
-6.25765
-5.17421
-4.05147
-2.9027
-1.7411
-0.579317
0.570824
1.69842
2.79366
3.84866
4.85739
5.81423
6.71521
7.55963
8.34631
9.0763
9.75326
10.3764
10.9471
11.4673
11.9394
12.3665
12.7516
13.098
13.4086
13.6865
13.9346
14.1555
14.3519
14.5261
14.6803
14.8165
14.9369
15.043
15.1365
15.2189
15.2915
15.3556
15.4121
15.4621
15.5064
15.5457
15.5808
15.6122
15.6405
15.666
15.6893
15.7106
15.7302
15.7485
15.7656
15.7818
15.7972
15.812
15.8263
15.8402
15.8538
15.8672
15.8803
15.8934
15.9064
15.9193
15.9322
15.9451
15.958
15.9708
15.9837
15.9964
16.0092
16.0219
16.0345
16.047
16.0594
16.0717
16.0837
16.0956
16.1072
16.1186
16.1297
16.1405
16.1509
16.161
16.1707
16.1801
16.1889
16.1974
16.2054
16.2129
16.2199
16.2264
16.2324
16.2378
16.2427
16.2471
16.2508
16.254
16.2565
16.2585
16.2597
16.2604
16.2603
16.2595
16.258
16.2558
16.2528
16.2491
16.2445
16.2392
16.2333
16.2266
16.2192
16.2113
16.2028
16.194
16.1851
16.1762
16.1674
16.1587
16.1483
16.1353
16.1011
-2.8123
-2.92227
-3.03601
-3.13811
-3.24841
-3.37386
-3.51556
-3.67384
-3.84857
-4.03926
-4.24514
-4.46537
-4.69904
-4.94523
-5.20302
-5.4715
-5.74978
-6.03698
-6.33222
-6.63467
-6.94346
-7.25779
-7.57684
-7.89975
-8.22573
-8.55394
-8.88353
-9.21363
-9.54331
-9.87163
-10.1976
-10.52
-10.8379
-11.1499
-11.4547
-11.7507
-12.0362
-12.3094
-12.5681
-12.8099
-13.032
-13.2313
-13.4041
-13.5461
-13.6525
-13.7181
-13.7377
-13.7035
-13.6035
-13.427
-13.1674
-12.8185
-12.3754
-11.8344
-11.1942
-10.4558
-9.623
-8.70233
-7.70282
-6.63596
-5.51535
-4.35542
-3.17079
-1.97592
-0.78402
0.392733
1.54278
2.65562
3.72434
4.74421
5.70904
6.61635
7.46918
8.26516
9.00177
9.6814
10.3051
10.8753
11.3947
11.8661
12.2927
12.6776
13.0239
13.3348
13.6133
13.8622
14.0842
14.2818
14.4576
14.6136
14.7518
14.8743
14.9827
15.0786
15.1634
15.2384
15.3048
15.3637
15.416
15.4625
15.504
15.5412
15.5746
15.6047
15.632
15.657
15.6798
15.701
15.7207
15.7391
15.7566
15.7731
15.789
15.8043
15.8192
15.8336
15.8478
15.8618
15.8756
15.8892
15.9028
15.9163
15.9297
15.9431
15.9564
15.9697
15.9829
15.996
16.0091
16.0221
16.0349
16.0476
16.0602
16.0726
16.0847
16.0966
16.1082
16.1196
16.1306
16.1413
16.1516
16.1615
16.171
16.1801
16.1888
16.197
16.2047
16.2119
16.2186
16.2248
16.2304
16.2355
16.24
16.244
16.2473
16.2501
16.2522
16.2536
16.2544
16.2545
16.2539
16.2526
16.2505
16.2477
16.244
16.2396
16.2344
16.2283
16.2215
16.2139
16.2056
16.1965
16.1868
16.1765
16.1655
16.1538
16.1408
16.1244
16.1032
16.0599
-3.16487
-3.26201
-3.36613
-3.46311
-3.56884
-3.68987
-3.82739
-3.98172
-4.15266
-4.33964
-4.54187
-4.75843
-4.9884
-5.23087
-5.48492
-5.74964
-6.0242
-6.30774
-6.59947
-6.89859
-7.20431
-7.51585
-7.83244
-8.15334
-8.47777
-8.80494
-9.13407
-9.46432
-9.79484
-10.1247
-10.453
-10.7787
-11.1007
-11.4177
-11.7285
-12.0316
-12.3254
-12.608
-12.8775
-13.1314
-13.367
-13.5813
-13.7704
-13.9301
-14.0552
-14.1405
-14.1801
-14.1643
-14.0799
-13.9165
-13.6666
-13.3229
-12.8797
-12.3327
-11.6799
-10.9223
-10.0642
-9.11299
-8.07853
-6.97338
-5.81329
-4.6145
-3.39332
-2.16559
-0.944108
0.2588
1.43
2.55849
3.64085
4.67437
5.65099
6.56717
7.42381
8.21977
8.95527
9.63232
10.253
10.8201
11.3363
11.8049
12.229
12.6118
12.9565
13.2663
13.544
13.7926
14.0148
14.213
14.3896
14.5468
14.6865
14.8107
14.921
15.0189
15.1059
15.1832
15.2519
15.313
15.3675
15.4163
15.4599
15.4992
15.5346
15.5666
15.5958
15.6225
15.6471
15.6698
15.691
15.7109
15.7296
15.7474
15.7645
15.7809
15.7967
15.8122
15.8273
15.8421
15.8566
15.871
15.8853
15.8994
15.9134
15.9274
15.9412
15.955
15.9687
15.9823
15.9958
16.0092
16.0224
16.0355
16.0483
16.061
16.0735
16.0857
16.0976
16.1092
16.1205
16.1314
16.1419
16.1521
16.1618
16.1712
16.18
16.1884
16.1964
16.2038
16.2107
16.2171
16.223
16.2283
16.233
16.2371
16.2407
16.2436
16.2459
16.2476
16.2486
16.2489
16.2485
16.2474
16.2455
16.2428
16.2393
16.2349
16.2297
16.2236
16.2167
16.2088
16.2
16.1903
16.1796
16.1678
16.1547
16.14
16.1229
16.1011
16.0727
16.0219
-3.48695
-3.56755
-3.6584
-3.74787
-3.84752
-3.96321
-4.09601
-4.24606
-4.41301
-4.59618
-4.79471
-5.00766
-5.23409
-5.47309
-5.72373
-5.98517
-6.25658
-6.53713
-6.82607
-7.12262
-7.42603
-7.73559
-8.05057
-8.37024
-8.69387
-9.02072
-9.35005
-9.68105
-10.0129
-10.3448
-10.6758
-11.0049
-11.3311
-11.6532
-11.9699
-12.2799
-12.5815
-12.873
-13.1525
-13.4175
-13.6656
-13.8935
-14.0975
-14.2731
-14.4152
-14.5185
-14.576
-14.5746
-14.5013
-14.3474
-14.1045
-13.7642
-13.3197
-12.7658
-12.1001
-11.3237
-10.4413
-9.46114
-8.39372
-7.25198
-6.05467
-4.82016
-3.56624
-2.30977
-1.06148
0.167684
1.36182
2.50999
3.60694
4.6482
5.62897
6.54706
7.40228
8.1949
8.92615
9.59817
10.2135
10.7752
11.2862
11.75
12.1699
12.5491
12.8909
13.1984
13.4745
13.7222
13.9439
14.1421
14.3192
14.4773
14.6183
14.744
14.856
14.9559
15.045
15.1244
15.1954
15.2589
15.3157
15.3667
15.4127
15.4541
15.4916
15.5258
15.5569
15.5855
15.6119
15.6363
15.6591
15.6805
15.7007
15.7199
15.7382
15.7558
15.7728
15.7893
15.8054
15.8211
15.8366
15.8518
15.8668
15.8816
15.8963
15.9109
15.9253
15.9397
15.9539
15.968
15.9819
15.9957
16.0093
16.0228
16.036
16.0491
16.0618
16.0744
16.0866
16.0985
16.11
16.1212
16.132
16.1425
16.1525
16.162
16.1711
16.1798
16.1879
16.1956
16.2027
16.2094
16.2154
16.221
16.2259
16.2303
16.2341
16.2373
16.2398
16.2417
16.2429
16.2435
16.2433
16.2423
16.2406
16.2381
16.2347
16.2305
16.2253
16.2192
16.2121
16.204
16.1947
16.1843
16.1725
16.1592
16.1441
16.1265
16.1054
16.0786
16.0441
15.9872
-3.75468
-3.81628
-3.89087
-3.97116
-4.06434
-4.17488
-4.30339
-4.4496
-4.61293
-4.79262
-4.98775
-5.19742
-5.42069
-5.65665
-5.90442
-6.16315
-6.43205
-6.71029
-6.99714
-7.29186
-7.59372
-7.90202
-8.21606
-8.53515
-8.85858
-9.18563
-9.51559
-9.8477
-10.1812
-10.5152
-10.8488
-11.1812
-11.5113
-11.8379
-12.1598
-12.4757
-12.784
-13.0831
-13.3709
-13.6451
-13.9033
-14.1422
-14.3581
-14.5463
-14.702
-14.8198
-14.891
-14.8978
-14.8285
-14.6782
-14.4377
-14.0975
-13.6496
-13.0884
-12.4111
-11.6189
-10.7172
-9.71552
-8.62537
-7.45812
-6.23152
-4.96729
-3.68362
-2.39764
-1.12404
0.124265
1.33419
2.49559
3.60148
4.64691
5.62856
6.54497
7.39616
8.18309
8.90764
9.57239
10.1803
10.7347
11.2389
11.6965
12.1109
12.4854
12.8234
13.1279
13.4018
13.6479
13.8689
14.067
14.2444
14.4033
14.5455
14.6727
14.7865
14.8884
14.9796
15.0614
15.1348
15.2007
15.26
15.3134
15.3617
15.4055
15.4453
15.4817
15.515
15.5456
15.5739
15.6003
15.6248
15.6479
15.6697
15.6904
15.7101
15.729
15.7472
15.7649
15.7821
15.7988
15.8153
15.8314
15.8472
15.8629
15.8783
15.8935
15.9086
15.9236
15.9384
15.953
15.9674
15.9817
15.9958
16.0097
16.0233
16.0367
16.0499
16.0627
16.0752
16.0875
16.0993
16.1108
16.1219
16.1326
16.1429
16.1527
16.162
16.1709
16.1793
16.1873
16.1947
16.2015
16.2079
16.2136
16.2188
16.2235
16.2275
16.2309
16.2337
16.2359
16.2374
16.2381
16.2382
16.2375
16.236
16.2336
16.2304
16.2263
16.2212
16.215
16.2078
16.1994
16.1897
16.1785
16.1657
16.1509
16.1338
16.1134
16.0888
16.0575
16.0177
15.9556
-3.94927
-3.99048
-4.047
-4.11773
-4.20536
-4.31173
-4.43667
-4.5796
-4.73981
-4.91647
-5.10868
-5.31557
-5.53621
-5.76973
-6.01526
-6.27198
-6.53905
-6.81572
-7.10123
-7.39484
-7.69585
-8.00356
-8.31728
-8.63632
-8.96
-9.2876
-9.61841
-9.9517
-10.2867
-10.6226
-10.9585
-11.2935
-11.6265
-11.9565
-12.2823
-12.6024
-12.9154
-13.2195
-13.5128
-13.7931
-14.0576
-14.3032
-14.5262
-14.7219
-14.8858
-15.0127
-15.0901
-15.0988
-15.0298
-14.8802
-14.6399
-14.2989
-13.8482
-13.2817
-12.5964
-11.7934
-10.8782
-9.86006
-8.75193
-7.56803
-6.32424
-5.0409
-3.7374
-2.43204
-1.14141
0.119988
1.33964
2.50766
3.61686
4.66237
5.64134
6.5528
7.39723
8.17616
8.89199
9.54773
10.1467
10.6926
11.1889
11.6394
12.0476
12.4169
12.7506
13.0517
13.3232
13.5678
13.7878
13.9857
14.1636
14.3234
14.4669
14.5958
14.7116
14.8157
14.9093
14.9935
15.0694
15.1379
15.1999
15.256
15.3069
15.3532
15.3955
15.4343
15.4699
15.5028
15.5332
15.5616
15.5881
15.613
15.6365
15.6588
15.6801
15.7005
15.7201
15.739
15.7574
15.7753
15.7928
15.8099
15.8266
15.8431
15.8594
15.8754
15.8912
15.9068
15.9222
15.9374
15.9524
15.9672
15.9818
15.9961
16.0102
16.024
16.0375
16.0507
16.0636
16.0762
16.0883
16.1001
16.1115
16.1225
16.1331
16.1432
16.1528
16.162
16.1707
16.1788
16.1865
16.1936
16.2002
16.2063
16.2118
16.2167
16.221
16.2247
16.2277
16.2302
16.2319
16.2329
16.2332
16.2328
16.2315
16.2294
16.2263
16.2223
16.2173
16.2111
16.2038
16.1951
16.1849
16.1731
16.1592
16.1431
16.1239
16.101
16.0731
16.0378
15.9936
15.9271
-4.05627
-4.07734
-4.11582
-4.17787
-4.26136
-4.36452
-4.48656
-4.62681
-4.78449
-4.95875
-5.14876
-5.35363
-5.57247
-5.80442
-6.04859
-6.3042
-6.57039
-6.84641
-7.13148
-7.42488
-7.72588
-8.03378
-8.34788
-8.66751
-8.99196
-9.32053
-9.65252
-9.98718
-10.3237
-10.6613
-10.9992
-11.3363
-11.6716
-12.0041
-12.3326
-12.6555
-12.9715
-13.2788
-13.5753
-13.859
-14.127
-14.3762
-14.6029
-14.8029
-14.9721
-15.1041
-15.1786
-15.1808
-15.1089
-14.9562
-14.7119
-14.3657
-13.9087
-13.3348
-12.6414
-11.8297
-10.9051
-9.8771
-8.75851
-7.56479
-6.3132
-5.02293
-3.71326
-2.40269
-1.10817
0.155341
1.37524
2.54159
3.64714
4.68713
5.65896
6.56193
7.39686
8.1657
8.87122
9.51675
10.106
10.6427
11.1307
11.5739
11.9757
12.3398
12.6693
12.9672
13.2364
13.4796
13.699
13.897
14.0755
14.2365
14.3816
14.5125
14.6305
14.7371
14.8333
14.9203
14.999
15.0704
15.1352
15.1942
15.2479
15.297
15.3421
15.3834
15.4216
15.4568
15.4896
15.5202
15.5488
15.5757
15.6011
15.6252
15.6482
15.6702
15.6913
15.7116
15.7313
15.7505
15.7691
15.7873
15.8051
15.8225
15.8397
15.8565
15.8731
15.8894
15.9055
15.9214
15.9369
15.9523
15.9674
15.9822
15.9967
16.0109
16.0249
16.0385
16.0517
16.0646
16.0771
16.0893
16.101
16.1123
16.1231
16.1335
16.1434
16.1529
16.1618
16.1703
16.1783
16.1857
16.1926
16.1989
16.2047
16.2098
16.2144
16.2184
16.2218
16.2245
16.2265
16.2278
16.2284
16.2282
16.2272
16.2253
16.2224
16.2186
16.2136
16.2075
16.2
16.1911
16.1805
16.168
16.1532
16.1357
16.1147
16.0895
16.0586
16.0198
15.9717
15.9016
-4.06671
-4.07046
-4.09387
-4.14826
-4.22772
-4.3279
-4.44752
-4.58576
-4.74173
-4.91457
-5.10339
-5.30732
-5.52547
-5.75698
-6.00098
-6.25663
-6.5231
-6.79961
-7.08536
-7.37961
-7.68163
-7.99068
-8.30606
-8.62707
-8.95299
-9.28312
-9.61674
-9.95309
-10.2914
-10.6308
-10.9704
-11.3094
-11.6465
-11.9809
-12.3111
-12.6358
-12.9535
-13.2624
-13.5605
-13.8456
-14.115
-14.3655
-14.5934
-14.7953
-14.9672
-15.0961
-15.1598
-15.15
-15.0679
-14.9041
-14.6474
-14.2878
-13.8175
-13.2311
-12.5268
-11.7065
-10.7761
-9.74514
-8.62632
-7.43505
-6.18863
-4.90559
-3.60467
-2.30393
-1.02001
0.232335
1.44065
2.59509
3.68844
4.71598
5.6752
6.56554
7.38796
8.14459
8.8384
9.47292
10.052
10.5795
11.0594
11.4955
11.8915
12.2508
12.5765
12.8718
13.1393
13.3815
13.6008
13.7993
13.9789
14.1415
14.2887
14.422
14.5427
14.652
14.7513
14.8414
14.9233
14.9978
15.0658
15.1279
15.1848
15.2369
15.2849
15.3291
15.37
15.4079
15.4432
15.4762
15.5071
15.5362
15.5637
15.5897
15.6145
15.6383
15.661
15.6829
15.704
15.7245
15.7444
15.7637
15.7826
15.8011
15.8192
15.837
15.8544
15.8715
15.8883
15.9048
15.921
15.937
15.9526
15.9679
15.9829
15.9976
16.012
16.026
16.0396
16.0529
16.0658
16.0782
16.0903
16.1019
16.113
16.1237
16.134
16.1437
16.153
16.1617
16.1699
16.1777
16.1848
16.1915
16.1975
16.203
16.2079
16.2122
16.2159
16.2189
16.2212
16.2228
16.2237
16.2238
16.223
16.2214
16.2187
16.215
16.2102
16.2041
16.1965
16.1874
16.1764
16.1633
16.1476
16.1288
16.1063
16.0789
16.0453
16.0034
15.9521
15.8788
-3.98118
-3.97156
-3.98381
-4.03159
-4.10667
-4.20363
-4.32091
-4.45748
-4.61232
-4.78446
-4.97299
-5.177
-5.39558
-5.62784
-5.8729
-6.12988
-6.39792
-6.67619
-6.96387
-7.26017
-7.56433
-7.87559
-8.19322
-8.51648
-8.84465
-9.177
-9.51278
-9.85121
-10.1915
-10.5328
-10.8742
-11.2147
-11.5533
-11.8889
-12.2201
-12.5456
-12.8639
-13.1731
-13.4712
-13.7561
-14.0249
-14.2747
-14.5026
-14.7057
-14.8749
-14.9865
-15.0282
-15.0024
-14.9029
-14.7192
-14.4414
-14.0607
-13.5707
-12.9677
-12.2509
-11.4232
-10.4908
-9.4633
-8.3533
-7.17568
-5.94708
-4.68517
-3.40773
-2.13187
-0.873386
0.353724
1.53758
2.66869
3.74006
4.74708
5.68728
6.56008
7.36643
8.10843
8.78904
9.41178
9.98043
10.4989
10.9712
11.4009
11.7918
12.1471
12.47
12.7633
13.0298
13.2719
13.4917
13.6914
13.8728
14.0376
14.1874
14.3236
14.4474
14.5601
14.6628
14.7564
14.8418
14.9199
14.9915
15.057
15.1173
15.1728
15.2239
15.2713
15.3151
15.356
15.394
15.4296
15.463
15.4945
15.5242
15.5524
15.5792
15.6048
15.6293
15.6528
15.6755
15.6975
15.7187
15.7393
15.7594
15.779
15.7981
15.8168
15.8352
15.8531
15.8707
15.8879
15.9048
15.9213
15.9375
15.9534
15.9689
15.9841
15.9989
16.0133
16.0274
16.041
16.0542
16.067
16.0794
16.0914
16.1028
16.1139
16.1244
16.1344
16.144
16.1531
16.1616
16.1696
16.1771
16.184
16.1904
16.1962
16.2014
16.206
16.21
16.2133
16.216
16.2179
16.2191
16.2195
16.219
16.2176
16.2152
16.2117
16.207
16.2009
16.1933
16.184
16.1727
16.159
16.1425
16.1226
16.0985
16.0693
16.0334
15.9888
15.9347
15.8587
-3.81054
-3.79113
-3.79569
-3.83813
-3.90882
-4.00225
-4.11693
-4.25174
-4.40553
-4.57729
-4.76605
-4.97088
-5.1908
-5.42487
-5.67213
-5.93164
-6.20247
-6.48373
-6.77453
-7.07403
-7.38142
-7.69589
-8.01666
-8.34297
-8.67407
-9.00919
-9.34755
-9.68837
-10.0308
-10.374
-10.717
-11.0588
-11.3984
-11.7346
-12.0661
-12.3914
-12.7091
-13.0174
-13.3142
-13.5973
-13.8641
-14.1125
-14.3395
-14.5381
-14.6853
-14.7663
-14.7835
-14.7329
-14.6058
-14.3929
-14.0858
-13.678
-13.1646
-12.5434
-11.8148
-10.9825
-10.0531
-9.03628
-7.94409
-6.79076
-5.59194
-4.36407
-3.12366
-1.88655
-0.667309
0.521192
1.66803
2.7644
3.80376
4.78171
5.69588
6.54563
7.33175
8.05619
8.7217
9.33157
9.88942
10.399
10.864
11.288
11.6746
12.0268
12.3478
12.6402
12.9066
13.1494
13.3707
13.5723
13.7562
13.9239
14.0769
14.2166
14.3441
14.4607
14.5673
14.6649
14.7544
14.8365
14.9119
14.9814
15.0454
15.1045
15.1592
15.21
15.2571
15.3011
15.3421
15.3806
15.4167
15.4507
15.4828
15.5133
15.5423
15.5699
15.5963
15.6216
15.646
15.6695
15.6922
15.7142
15.7356
15.7563
15.7766
15.7963
15.8156
15.8344
15.8528
15.8707
15.8883
15.9055
15.9223
15.9387
15.9548
15.9704
15.9857
16.0006
16.015
16.029
16.0426
16.0558
16.0685
16.0808
16.0926
16.104
16.1148
16.1252
16.135
16.1444
16.1533
16.1616
16.1694
16.1766
16.1833
16.1894
16.195
16.1999
16.2042
16.2079
16.2108
16.2131
16.2146
16.2153
16.2151
16.214
16.2118
16.2085
16.2039
16.198
16.1904
16.1809
16.1693
16.1551
16.1379
16.1171
16.0917
16.0607
16.0228
15.9759
15.9194
15.8412
-3.57191
-3.5449
-3.54317
-3.58018
-3.64569
-3.73468
-3.84588
-3.97823
-4.1306
-4.30195
-4.49126
-4.69752
-4.91966
-5.1566
-5.40728
-5.67062