/*--------------------------------*- C++ -*----------------------------------*\
| =========                 |                                                 |
| \\      /  F ield         | OpenFOAM: The Open Source CFD Toolbox           |
|  \\    /   O peration     | Version:  1.4.2                                 |
|   \\  /    A nd           | Web:      http://www.openfoam.org               |
|    \\/     M anipulation  |                                                 |
\*---------------------------------------------------------------------------*/
FoamFile
{
    version     2.0;
    format      ascii;
    class       surfaceScalarField;
    object      phi;
    location    "150";
}
// * * * * * * * * * * * * * * * * * * * * * * * * * * * * * * * * * * * * * //

dimensions      [0 3 -1 0 0 0 0];

internalField   nonuniform List<scalar> 
24170
(
3.039e-06
9.48977e-08
2.96599e-06
7.29997e-08
2.90076e-06
6.52382e-08
2.8387e-06
6.20563e-08
2.77993e-06
5.87682e-08
2.72477e-06
5.51597e-08
2.67336e-06
5.14105e-08
2.62604e-06
4.73157e-08
2.58379e-06
4.22485e-08
2.54886e-06
3.49234e-08
2.52638e-06
2.248e-08
2.52417e-06
2.21358e-09
2.5453e-06
-2.11244e-08
2.58317e-06
-3.78665e-08
2.62601e-06
-4.28376e-08
2.66314e-06
-3.71323e-08
2.69014e-06
-2.69978e-08
-1.6341e-08
2.70648e-06
3.46179e-06
8.95519e-08
3.45321e-06
8.15762e-08
3.44308e-06
7.53732e-08
3.43152e-06
7.36062e-08
3.41885e-06
7.14435e-08
3.40555e-06
6.84602e-08
3.39211e-06
6.48545e-08
3.37925e-06
6.01872e-08
3.36824e-06
5.32565e-08
3.3609e-06
4.22629e-08
3.35697e-06
2.64006e-08
3.35089e-06
8.29125e-09
3.33715e-06
-7.3837e-09
3.31696e-06
-1.76825e-08
3.29604e-06
-2.19175e-08
3.27907e-06
-2.01733e-08
3.26712e-06
-1.50514e-08
-8.61149e-09
3.25939e-06
3.82409e-06
7.76573e-08
3.82558e-06
8.00859e-08
3.82414e-06
7.68088e-08
3.82161e-06
7.61378e-08
3.81822e-06
7.48308e-08
3.81418e-06
7.24945e-08
3.80973e-06
6.93057e-08
3.8051e-06
6.48162e-08
3.8004e-06
5.79649e-08
3.79496e-06
4.77054e-08
3.78683e-06
3.45337e-08
3.77412e-06
2.1001e-08
3.75697e-06
9.76636e-09
3.73736e-06
1.92915e-09
3.71789e-06
-2.4476e-09
3.70089e-06
-3.17937e-09
3.68731e-06
-1.46431e-09
1.58956e-09
3.67711e-06
4.21662e-06
6.56005e-08
4.22129e-06
7.54128e-08
4.22265e-06
7.54474e-08
4.22282e-06
7.59682e-08
4.22218e-06
7.54782e-08
4.22084e-06
7.38308e-08
4.2189e-06
7.12376e-08
4.21633e-06
6.73799e-08
4.21274e-06
6.15561e-08
4.20709e-06
5.33553e-08
4.19802e-06
4.35982e-08
4.18512e-06
3.39085e-08
4.16943e-06
2.54606e-08
4.15267e-06
1.86878e-08
4.13642e-06
1.3801e-08
4.12201e-06
1.12249e-08
4.11008e-06
1.04642e-08
1.08747e-08
4.1008e-06
4.64838e-06
5.45285e-08
4.65451e-06
6.9286e-08
4.65746e-06
7.24957e-08
4.65903e-06
7.43915e-08
4.6597e-06
7.48188e-08
4.65957e-06
7.39632e-08
4.65868e-06
7.21332e-08
4.65685e-06
6.92098e-08
4.65358e-06
6.48318e-08
4.64791e-06
5.90196e-08
4.63901e-06
5.2498e-08
4.62706e-06
4.58614e-08
4.61327e-06
3.92485e-08
4.59908e-06
3.28782e-08
4.5856e-06
2.72778e-08
4.57374e-06
2.30923e-08
4.56396e-06
2.02378e-08
1.83246e-08
4.55651e-06
5.12421e-06
4.49155e-08
5.13096e-06
6.2533e-08
5.13501e-06
6.84402e-08
5.13765e-06
7.17529e-08
5.13923e-06
7.32326e-08
5.13988e-06
7.3312e-08
5.13961e-06
7.24056e-08
5.1382e-06
7.06149e-08
5.13513e-06
6.79026e-08
5.12961e-06
6.45359e-08
5.12124e-06
6.08709e-08
5.11056e-06
5.654e-08
5.09877e-06
5.10409e-08
5.08701e-06
4.46382e-08
5.07612e-06
3.817e-08
5.06676e-06
3.24469e-08
5.05936e-06
2.76428e-08
2.35197e-08
5.05416e-06
5.64901e-06
3.69089e-08
5.65584e-06
5.57035e-08
5.66059e-06
6.36904e-08
5.66403e-06
6.83134e-08
5.66637e-06
7.08913e-08
5.66768e-06
7.20097e-08
5.6679e-06
7.21842e-08
5.66682e-06
7.16965e-08
5.66395e-06
7.07737e-08
5.65873e-06
6.97553e-08
5.65115e-06
6.84554e-08
5.64198e-06
6.57064e-08
5.6323e-06
6.0721e-08
5.62299e-06
5.39491e-08
5.61469e-06
4.64664e-08
5.60794e-06
3.9203e-08
5.60308e-06
3.24963e-08
2.62255e-08
5.60038e-06
4.41092e-06
3.21003e-08
4.41565e-06
5.09738e-08
4.41931e-06
6.00369e-08
4.4221e-06
6.55229e-08
4.42413e-06
6.88623e-08
4.4254e-06
7.07408e-08
4.42584e-06
7.17457e-08
4.42528e-06
7.22541e-08
4.42342e-06
7.26246e-08
4.42003e-06
7.31503e-08
4.41526e-06
7.32214e-08
4.40973e-06
7.12364e-08
4.4041e-06
6.63483e-08
4.3989e-06
5.91561e-08
4.3945e-06
5.08612e-08
4.39124e-06
4.24654e-08
4.38933e-06
3.4408e-08
2.66264e-08
4.38893e-06
5.14428e-06
2.76759e-08
5.14911e-06
4.61402e-08
5.15314e-06
5.60096e-08
5.15638e-06
6.22742e-08
5.15886e-06
6.63777e-08
5.16053e-06
6.90727e-08
5.1613e-06
7.0977e-08
5.16099e-06
7.25582e-08
5.15936e-06
7.42599e-08
5.15625e-06
7.62547e-08
5.15196e-06
7.75171e-08
5.14711e-06
7.60821e-08
5.14234e-06
7.11212e-08
5.13812e-06
6.33781e-08
5.13481e-06
5.41631e-08
5.13273e-06
4.45481e-08
5.13208e-06
3.50605e-08
2.57146e-08
5.13299e-06
5.99975e-06
2.37177e-08
6.00455e-06
4.13357e-08
6.00884e-06
5.1721e-08
6.01249e-06
5.86261e-08
6.01542e-06
6.34529e-08
6.01753e-06
6.69605e-08
6.01873e-06
6.9781e-08
6.01885e-06
7.24406e-08
6.0177e-06
7.54047e-08
6.01525e-06
7.87087e-08
6.01184e-06
8.09301e-08
6.00807e-06
7.98518e-08
6.0045e-06
7.4687e-08
6.00158e-06
6.63007e-08
5.99964e-06
5.60993e-08
5.99897e-06
4.52185e-08
5.99976e-06
3.42715e-08
2.33772e-08
6.0021e-06
6.99773e-06
2.026e-08
7.00238e-06
3.66811e-08
7.00684e-06
4.72669e-08
7.01083e-06
5.46385e-08
7.01419e-06
6.00914e-08
7.01679e-06
6.43545e-08
7.01853e-06
6.8045e-08
7.01927e-06
7.16986e-08
7.01891e-06
7.5762e-08
7.0175e-06
8.01166e-08
7.0154e-06
8.30304e-08
7.01314e-06
8.21183e-08
7.01118e-06
7.66432e-08
7.00991e-06
6.75676e-08
7.00965e-06
5.6366e-08
7.01062e-06
4.42383e-08
7.01301e-06
3.18872e-08
1.95497e-08
7.01684e-06
8.16201e-06
1.72674e-08
8.16643e-06
3.22541e-08
8.17098e-06
4.27139e-08
8.17526e-06
5.03593e-08
8.17905e-06
5.62932e-08
8.18221e-06
6.11971e-08
8.18462e-06
6.56349e-08
8.18621e-06
7.011e-08
8.18696e-06
7.50162e-08
8.18698e-06
8.00925e-08
8.18661e-06
8.33955e-08
8.18628e-06
8.24511e-08
8.18634e-06
7.65813e-08
8.18709e-06
6.6816e-08
8.18878e-06
5.46751e-08
8.19161e-06
4.14161e-08
8.19567e-06
2.78266e-08
1.42636e-08
8.20095e-06
9.52032e-06
1.46741e-08
9.52449e-06
2.80778e-08
9.52911e-06
3.81003e-08
9.53368e-06
4.57887e-08
9.53796e-06
5.20135e-08
9.54178e-06
5.73748e-08
9.54506e-06
6.23612e-08
9.54775e-06
6.74104e-08
9.54993e-06
7.28378e-08
9.55176e-06
7.82643e-08
9.55352e-06
8.16334e-08
9.55551e-06
8.04614e-08
9.55795e-06
7.41412e-08
9.56101e-06
6.37503e-08
9.56486e-06
5.08294e-08
9.5696e-06
3.66732e-08
9.57529e-06
2.21396e-08
7.69398e-09
9.58186e-06
1.1105e-05
1.23722e-08
1.1109e-05
2.40977e-08
1.11137e-05
3.33866e-08
1.11187e-05
4.08439e-08
1.11236e-05
4.7119e-08
1.11282e-05
5.26912e-08
1.11326e-05
5.79644e-08
1.11368e-05
6.32862e-08
1.11407e-05
6.88852e-08
1.11447e-05
7.42889e-08
1.11489e-05
7.74131e-08
1.11535e-05
7.58528e-08
1.11586e-05
6.90924e-08
1.11641e-05
5.82357e-08
1.11701e-05
4.48133e-08
1.11766e-05
3.01267e-08
1.11837e-05
1.50769e-08
2.08645e-10
1.11912e-05
1.29538e-05
1.02143e-08
1.29577e-05
2.01624e-08
1.29627e-05
2.84177e-08
1.29682e-05
3.5343e-08
1.29739e-05
4.13703e-08
1.29798e-05
4.68557e-08
1.29856e-05
5.20964e-08
1.29916e-05
5.73572e-08
1.29977e-05
6.27851e-08
1.30041e-05
6.78402e-08
1.3011e-05
7.04862e-08
1.30184e-05
6.848e-08
1.30261e-05
6.14122e-08
1.30339e-05
5.03845e-08
1.30419e-05
3.68797e-08
1.30498e-05
2.2165e-08
1.30578e-05
7.14499e-09
-7.59467e-09
1.30656e-05
1.51106e-05
8.0397e-09
1.51147e-05
1.60445e-08
1.51202e-05
2.29525e-08
1.51266e-05
2.89978e-08
1.51335e-05
3.44314e-08
1.51409e-05
3.94835e-08
1.51486e-05
4.43442e-08
1.51568e-05
4.92003e-08
1.51654e-05
5.41396e-08
1.51747e-05
5.86113e-08
1.51844e-05
6.07058e-08
1.51945e-05
5.83892e-08
1.52046e-05
5.13403e-08
1.52144e-05
4.06144e-08
1.52237e-05
2.75986e-08
1.52323e-05
1.34799e-08
1.52404e-05
-8.77579e-10
-1.48888e-08
1.52477e-05
1.76268e-05
5.64318e-09
1.76315e-05
1.1388e-08
1.76379e-05
1.65846e-08
1.76455e-05
2.13609e-08
1.76541e-05
2.58349e-08
1.76635e-05
3.00967e-08
1.76736e-05
3.42399e-08
1.76844e-05
3.8373e-08
1.7696e-05
4.25635e-08
1.77083e-05
4.6343e-08
1.77209e-05
4.8035e-08
1.77335e-05
4.58132e-08
1.77455e-05
3.93637e-08
1.77565e-05
2.96208e-08
1.77663e-05
1.78202e-08
1.77747e-05
5.02318e-09
1.77818e-05
-7.9875e-09
-2.06666e-08
1.77876e-05
1.78287e-05
3.13092e-09
1.78336e-05
6.47189e-09
1.78404e-05
9.79224e-09
1.78486e-05
1.31372e-08
1.7858e-05
1.64836e-08
1.78683e-05
1.97995e-08
1.78794e-05
2.30858e-08
1.78914e-05
2.63856e-08
1.79042e-05
2.97758e-08
1.79176e-05
3.29634e-08
1.7931e-05
3.46067e-08
1.79438e-05
3.30352e-08
1.79554e-05
2.78119e-08
1.79653e-05
1.96666e-08
1.79735e-05
9.64881e-09
1.79798e-05
-1.32543e-09
1.79844e-05
-1.2572e-08
-2.36048e-08
1.79874e-05
1.58838e-05
6.37903e-10
1.58887e-05
1.63477e-09
1.58953e-05
3.1782e-09
1.59032e-05
5.20354e-09
1.59122e-05
7.52154e-09
1.5922e-05
9.99504e-09
1.59325e-05
1.25319e-08
1.59438e-05
1.51197e-08
1.59557e-05
1.78418e-08
1.59681e-05
2.06075e-08
1.59802e-05
2.24659e-08
1.59914e-05
2.18925e-08
1.60009e-05
1.82362e-08
1.60087e-05
1.19595e-08
1.60144e-05
3.91547e-09
1.60182e-05
-5.11883e-09
1.60202e-05
-1.45538e-08
-2.39609e-08
1.60205e-05
1.41513e-05
-1.96845e-09
1.41562e-05
-3.31431e-09
1.41628e-05
-3.39712e-09
1.41705e-05
-2.5128e-09
1.41791e-05
-1.03942e-09
1.41883e-05
7.70075e-10
1.41981e-05
2.7464e-09
1.42084e-05
4.82023e-09
1.42192e-05
7.05974e-09
1.42302e-05
9.53595e-09
1.4241e-05
1.17016e-08
1.42506e-05
1.22465e-08
1.42586e-05
1.02929e-08
1.42646e-05
5.9872e-09
1.42685e-05
-2.96828e-11
1.42705e-05
-7.11703e-09
1.42707e-05
-1.4775e-08
-2.26289e-08
1.42694e-05
1.26079e-05
-4.85581e-09
1.26131e-05
-8.55179e-09
1.26198e-05
-1.0047e-08
1.26273e-05
-1.00602e-08
1.26355e-05
-9.2104e-09
1.26441e-05
-7.853e-09
1.26531e-05
-6.21463e-09
1.26623e-05
-4.42315e-09
1.26718e-05
-2.44239e-09
1.26815e-05
-1.12496e-10
1.26908e-05
2.36691e-09
1.26991e-05
3.98497e-09
1.27057e-05
3.71331e-09
1.27103e-05
1.36545e-09
1.27129e-05
-2.65397e-09
1.27136e-05
-7.84632e-09
1.27127e-05
-1.37977e-08
-2.01838e-08
1.27102e-05
1.12332e-05
-8.22842e-09
1.12389e-05
-1.42372e-08
1.12456e-05
-1.68325e-08
1.1253e-05
-1.74517e-08
1.12608e-05
-1.69915e-08
1.12688e-05
-1.58649e-08
1.1277e-05
-1.43493e-08
1.12852e-05
-1.26158e-08
1.12934e-05
-1.06582e-08
1.13016e-05
-8.29479e-09
1.13094e-05
-5.48938e-09
1.13163e-05
-2.91569e-09
1.13216e-05
-1.62448e-09
1.13251e-05
-2.10878e-09
1.13267e-05
-4.22302e-09
1.13265e-05
-7.61503e-09
1.13246e-05
-1.19513e-08
-1.69595e-08
1.13214e-05
1.00087e-05
-1.23417e-08
1.0015e-05
-2.05016e-08
1.00219e-05
-2.37371e-08
1.00291e-05
-2.46335e-08
1.00364e-05
-2.43169e-08
1.00438e-05
-2.32135e-08
1.0051e-05
-2.1639e-08
1.00582e-05
-1.97807e-08
1.00652e-05
-1.76454e-08
1.0072e-05
-1.50597e-08
1.00783e-05
-1.18655e-08
1.00839e-05
-8.44022e-09
1.0088e-05
-5.74355e-09
1.00904e-05
-4.50743e-09
1.0091e-05
-4.85101e-09
1.009e-05
-6.56585e-09
1.00874e-05
-9.39438e-09
-1.3122e-08
1.00836e-05
8.91828e-06
-1.75167e-08
8.92516e-06
-2.73854e-08
8.93205e-06
-3.06278e-08
8.93886e-06
-3.14444e-08
8.94558e-06
-3.10339e-08
8.95215e-06
-2.97806e-08
8.95852e-06
-2.8017e-08
8.96466e-06
-2.59224e-08
8.97051e-06
-2.3487e-08
8.97598e-06
-2.05326e-08
8.98096e-06
-1.68461e-08
8.98512e-06
-1.26052e-08
8.98802e-06
-8.63792e-09
8.98934e-06
-5.832e-09
8.98904e-06
-4.54537e-09
8.98718e-06
-4.71161e-09
8.98394e-06
-6.15437e-09
-8.71697e-09
8.97954e-06
7.94724e-06
-2.40951e-08
7.95461e-06
-3.47554e-08
7.9612e-06
-3.72149e-08
7.96736e-06
-3.7603e-08
7.97323e-06
-3.69042e-08
7.97884e-06
-3.53852e-08
7.98419e-06
-3.33724e-08
7.98928e-06
-3.10144e-08
7.99405e-06
-2.82544e-08
7.99839e-06
-2.48725e-08
8.00216e-06
-2.06086e-08
8.00508e-06
-1.55261e-08
8.00678e-06
-1.03452e-08
8.007e-06
-6.05373e-09
8.00569e-06
-3.22865e-09
8.00294e-06
-1.96115e-09
7.99894e-06
-2.1563e-09
-3.69771e-09
7.99392e-06
7.08257e-06
-3.23378e-08
7.09004e-06
-4.22212e-08
7.09586e-06
-4.30296e-08
7.10098e-06
-4.27241e-08
7.1057e-06
-4.16307e-08
7.11013e-06
-3.98125e-08
7.11433e-06
-3.75697e-08
7.11832e-06
-3.50056e-08
7.12206e-06
-3.19958e-08
7.12542e-06
-2.82383e-08
7.1282e-06
-2.33864e-08
7.13008e-06
-1.74062e-08
7.13068e-06
-1.09493e-08
7.12975e-06
-5.12353e-09
7.12728e-06
-7.59748e-10
7.12345e-06
1.87369e-09
7.11851e-06
2.78821e-09
2.0856e-09
7.11272e-06
6.31248e-06
-4.23031e-08
6.31922e-06
-4.89654e-08
6.3236e-06
-4.74101e-08
6.32722e-06
-4.63465e-08
6.33046e-06
-4.48702e-08
6.33344e-06
-4.27922e-08
6.33626e-06
-4.03896e-08
6.33899e-06
-3.77266e-08
6.34161e-06
-3.46194e-08
6.34404e-06
-3.06749e-08
6.34605e-06
-2.53879e-08
6.34716e-06
-1.85194e-08
6.34685e-06
-1.0639e-08
6.34479e-06
-3.05896e-09
6.341e-06
3.02404e-09
6.33576e-06
7.11169e-09
6.32949e-06
9.06242e-09
8.95685e-09
6.32262e-06
5.62612e-06
-5.35189e-08
5.63046e-06
-5.33124e-08
5.63238e-06
-4.93273e-08
5.63369e-06
-4.76594e-08
5.63465e-06
-4.58255e-08
5.63539e-06
-4.35337e-08
5.63606e-06
-4.10598e-08
5.63677e-06
-3.84391e-08
5.63762e-06
-3.54715e-08
5.6387e-06
-3.17462e-08
5.63991e-06
-2.66063e-08
5.64075e-06
-1.93641e-08
5.64025e-06
-1.01357e-08
5.63757e-06
-3.77834e-10
5.63247e-06
8.11784e-09
5.62527e-06
1.43139e-08
5.61686e-06
1.74755e-08
1.75014e-08
5.60831e-06
5.01075e-06
-6.19604e-08
5.00764e-06
-5.02035e-08
5.00328e-06
-4.49689e-08
4.99844e-06
-4.28104e-08
4.99327e-06
-4.06596e-08
4.98806e-06
-3.83226e-08
4.98299e-06
-3.59961e-08
4.97824e-06
-3.36908e-08
4.97405e-06
-3.12807e-08
4.97084e-06
-2.85332e-08
4.96925e-06
-2.50195e-08
4.96985e-06
-1.99652e-08
4.97177e-06
-1.20577e-08
4.97183e-06
-4.35775e-10
4.967e-06
1.2949e-08
4.95727e-06
2.40442e-08
4.94567e-06
2.90801e-08
2.78149e-08
4.93535e-06
4.39459e-06
4.34439e-06
4.29942e-06
4.25661e-06
4.21595e-06
4.17763e-06
4.14163e-06
4.10794e-06
4.07666e-06
4.04813e-06
4.0231e-06
4.00314e-06
3.99108e-06
3.99064e-06
4.00359e-06
4.02764e-06
4.05672e-06
4.08453e-06
3.61207e-09
-3.61088e-09
-7.17757e-08
7.54122e-08
-1.98599e-07
1.26816e-07
-3.51807e-07
1.53203e-07
-5.18043e-07
1.66235e-07
-6.91153e-07
1.73107e-07
-8.68056e-07
1.76907e-07
-1.04694e-06
1.78881e-07
-1.22653e-06
1.79587e-07
-1.40587e-06
1.7933e-07
-1.58418e-06
1.78311e-07
-1.76086e-06
1.76678e-07
-1.93541e-06
1.74549e-07
-2.10743e-06
1.72021e-07
-2.27661e-06
1.69177e-07
-2.44271e-06
1.66086e-07
-2.60552e-06
1.62811e-07
-2.76493e-06
1.59403e-07
-2.92083e-06
1.55903e-07
-3.07317e-06
1.52346e-07
-3.22193e-06
1.48759e-07
-3.36709e-06
1.45163e-07
-3.50866e-06
1.41572e-07
-3.64666e-06
1.37998e-07
-3.7811e-06
1.34443e-07
-3.91201e-06
1.30909e-07
-4.0394e-06
1.27388e-07
-4.16327e-06
1.23873e-07
-4.28363e-06
1.20351e-07
-4.40044e-06
1.16808e-07
-4.51367e-06
1.13223e-07
-4.62324e-06
1.09573e-07
-4.72907e-06
1.05832e-07
-4.83104e-06
1.01969e-07
-4.92899e-06
9.79518e-08
-5.02273e-06
9.37417e-08
-5.11203e-06
8.92983e-08
-5.1966e-06
8.45776e-08
-5.27613e-06
7.95307e-08
-5.35023e-06
7.41057e-08
-5.41848e-06
6.82481e-08
-5.48038e-06
6.19017e-08
-5.53538e-06
5.50088e-08
-5.58289e-06
4.75122e-08
-5.62225e-06
3.93574e-08
-5.65275e-06
3.04935e-08
-5.67362e-06
2.08738e-08
-5.68408e-06
1.04597e-08
-5.6833e-06
-7.83412e-10
-5.67048e-06
-1.28242e-08
-5.6449e-06
-2.55764e-08
-5.60593e-06
-3.89697e-08
-5.55303e-06
-5.29005e-08
-5.48579e-06
-6.72409e-08
-5.40395e-06
-8.18407e-08
-5.30741e-06
-9.65315e-08
-5.19627e-06
-1.11131e-07
-5.07082e-06
-1.25448e-07
-4.93153e-06
-1.39288e-07
-4.77907e-06
-1.52461e-07
-4.61428e-06
-1.64787e-07
-4.43818e-06
-1.76103e-07
-4.25191e-06
-1.86267e-07
-4.05675e-06
-1.95161e-07
-3.85405e-06
-2.02697e-07
-3.64523e-06
-2.08815e-07
-3.43175e-06
-2.13486e-07
-3.21504e-06
-2.16709e-07
-2.99652e-06
-2.18512e-07
-2.77758e-06
-2.18947e-07
-2.55949e-06
-2.18088e-07
-2.34345e-06
-2.16028e-07
-2.13058e-06
-2.12874e-07
-1.92183e-06
-2.08741e-07
-1.71808e-06
-2.03748e-07
-1.52006e-06
-1.98016e-07
-1.32839e-06
-1.91662e-07
-1.14359e-06
-1.84804e-07
-9.66042e-07
-1.77549e-07
-7.96062e-07
-1.69983e-07
-6.33872e-07
-1.62192e-07
-4.79638e-07
-1.54235e-07
-3.33307e-07
-1.46331e-07
-1.94666e-07
-1.38641e-07
-6.29349e-08
-1.31732e-07
6.23763e-08
-1.25317e-07
1.80777e-07
-1.18411e-07
2.92064e-07
-1.11296e-07
3.96292e-07
-1.04234e-07
4.93687e-07
-9.73968e-08
5.84536e-07
-9.08472e-08
6.69162e-07
-8.46208e-08
7.47903e-07
-7.8734e-08
8.21103e-07
-7.31918e-08
8.89098e-07
-6.79901e-08
9.52217e-07
-6.31184e-08
1.01078e-06
-5.85642e-08
1.06509e-06
-5.43147e-08
1.11545e-06
-5.0356e-08
1.16212e-06
-4.66741e-08
1.20538e-06
-4.32551e-08
1.24547e-06
-4.00856e-08
1.28262e-06
-3.71523e-08
1.31707e-06
-3.4442e-08
1.34902e-06
-3.19414e-08
1.37866e-06
-2.96373e-08
1.40617e-06
-2.75177e-08
1.43175e-06
-2.55714e-08
1.45553e-06
-2.37878e-08
1.47769e-06
-2.21566e-08
1.49835e-06
-2.06686e-08
1.51766e-06
-1.93147e-08
1.53575e-06
-1.80863e-08
1.55273e-06
-1.69755e-08
1.56871e-06
-1.59753e-08
1.58379e-06
-1.50783e-08
1.59807e-06
-1.42772e-08
1.61164e-06
-1.35652e-08
1.62458e-06
-1.29362e-08
1.63696e-06
-1.23849e-08
1.64887e-06
-1.1906e-08
1.66037e-06
-1.14934e-08
1.67151e-06
-1.11407e-08
1.68236e-06
-1.08417e-08
1.69296e-06
-1.05918e-08
1.70335e-06
-1.03868e-08
1.71358e-06
-1.02226e-08
1.72368e-06
-1.00945e-08
1.73368e-06
-9.99776e-09
1.74361e-06
-9.92806e-09
1.7535e-06
-9.88124e-09
1.76335e-06
-9.85253e-09
1.77319e-06
-9.83757e-09
1.78303e-06
-9.83318e-09
1.79287e-06
-9.83689e-09
1.80272e-06
-9.84564e-09
1.81257e-06
-9.85603e-09
1.82244e-06
-9.86536e-09
1.83231e-06
-9.8718e-09
1.84219e-06
-9.8735e-09
1.85206e-06
-9.8688e-09
1.86191e-06
-9.85696e-09
1.87175e-06
-9.83762e-09
1.88157e-06
-9.80991e-09
1.89134e-06
-9.77333e-09
1.90108e-06
-9.72885e-09
1.91076e-06
-9.67751e-09
1.92038e-06
-9.61879e-09
1.92993e-06
-9.55218e-09
1.93941e-06
-9.47954e-09
1.94882e-06
-9.40433e-09
1.95814e-06
-9.32835e-09
1.96739e-06
-9.25028e-09
1.97656e-06
-9.16988e-09
1.98566e-06
-9.09129e-09
1.99467e-06
-9.01583e-09
2.00362e-06
-8.94158e-09
2.01249e-06
-8.87089e-09
2.02129e-06
-8.80476e-09
2.03003e-06
-8.74197e-09
2.03872e-06
-8.68258e-09
2.04733e-06
-8.61917e-09
2.05587e-06
-8.53611e-09
2.06426e-06
-8.39036e-09
2.0723e-06
-8.035e-09
2.08023e-06
-7.93322e-09
2.08816e-06
-7.9281e-09
2.09581e-06
-7.64708e-09
2.10321e-06
-7.40258e-09
2.11034e-06
-7.11923e-09
2.11706e-06
-6.723e-09
2.12319e-06
-6.12787e-09
2.12839e-06
-5.19838e-09
2.13216e-06
-3.76622e-09
2.1338e-06
-1.64518e-09
2.13227e-06
1.53878e-09
2.12547e-06
6.79305e-09
2.10889e-06
1.65775e-08
2.07155e-06
3.73489e-08
9.9709e-08
1.97183e-06
-1.35817e-07
1.32208e-07
-2.74491e-07
2.1408e-07
-4.12982e-07
2.65301e-07
-5.58455e-07
2.98669e-07
-7.12258e-07
3.20037e-07
-8.72714e-07
3.33566e-07
-1.03767e-06
3.41874e-07
-1.20531e-06
3.46518e-07
-1.37416e-06
3.48446e-07
-1.54311e-06
3.48277e-07
-1.71124e-06
3.46454e-07
-1.87787e-06
3.43313e-07
-2.04244e-06
3.39122e-07
-2.20452e-06
3.34099e-07
-2.36377e-06
3.28426e-07
-2.51993e-06
3.22254e-07
-2.67283e-06
3.15709e-07
-2.82231e-06
3.08895e-07
-2.96831e-06
3.01897e-07
-3.11075e-06
2.94786e-07
-3.24961e-06
2.87613e-07
-3.38486e-06
2.80418e-07
-3.51652e-06
2.73231e-07
-3.64459e-06
2.66066e-07
-3.76907e-06
2.5893e-07
-3.88998e-06
2.5182e-07
-4.00732e-06
2.44727e-07
-4.12108e-06
2.37634e-07
-4.23124e-06
2.30514e-07
-4.33776e-06
2.23339e-07
-4.44061e-06
2.16071e-07
-4.5397e-06
2.08666e-07
-4.63495e-06
2.01075e-07
-4.72622e-06
1.93242e-07
-4.81338e-06
1.85106e-07
-4.89624e-06
1.76599e-07
-4.97459e-06
1.67645e-07
-5.04818e-06
1.58161e-07
-5.11671e-06
1.48059e-07
-5.17985e-06
1.37244e-07
-5.23722e-06
1.25614e-07
-5.28839e-06
1.13065e-07
-5.33287e-06
9.94882e-08
-5.37014e-06
8.47781e-08
-5.39962e-06
6.88311e-08
-5.42067e-06
5.15496e-08
-5.43264e-06
3.28452e-08
-5.43483e-06
1.26489e-08
-5.42653e-06
-9.08356e-09
-5.40704e-06
-3.23184e-08
-5.37567e-06
-5.69436e-08
-5.33182e-06
-8.2826e-08
-5.27494e-06
-1.09781e-07
-5.20462e-06
-1.37572e-07
-5.12054e-06
-1.65917e-07
-5.02259e-06
-1.94494e-07
-4.91078e-06
-2.22945e-07
-4.78534e-06
-2.50892e-07
-4.64668e-06
-2.7795e-07
-4.49541e-06
-3.03733e-07
-4.33232e-06
-3.27876e-07
-4.15838e-06
-3.50046e-07
-3.9747e-06
-3.69951e-07
-3.78251e-06
-3.8735e-07
-3.58314e-06
-4.02063e-07
-3.37799e-06
-4.1397e-07
-3.16846e-06
-4.23011e-07
-2.95599e-06
-4.29186e-07
-2.74195e-06
-4.32551e-07
-2.52769e-06
-4.33212e-07
-2.31446e-06
-4.31322e-07
-2.10342e-06
-4.27068e-07
-1.89564e-06
-4.20665e-07
-1.69204e-06
-4.12344e-07
-1.49344e-06
-4.02349e-07
-1.30053e-06
-3.90926e-07
-1.11388e-06
-3.78317e-07
-9.33915e-07
-3.64765e-07
-7.60953e-07
-3.50507e-07
-5.95184e-07
-3.35749e-07
-4.36659e-07
-3.20715e-07
-2.85296e-07
-3.05599e-07
-1.4081e-07
-2.90821e-07
-2.91793e-09
-2.76537e-07
1.27706e-07
-2.62358e-07
2.50344e-07
-2.47951e-07
3.65384e-07
-2.33442e-07
4.7327e-07
-2.19172e-07
5.74375e-07
-2.0533e-07
6.69014e-07
-1.92034e-07
7.57509e-07
-1.79346e-07
8.40185e-07
-1.67303e-07
9.1736e-07
-1.55917e-07
9.89354e-07
-1.45189e-07
1.05648e-06
-1.35111e-07
1.11903e-06
-1.25666e-07
1.1773e-06
-1.16833e-07
1.23158e-06
-1.08589e-07
1.28214e-06
-1.00907e-07
1.32923e-06
-9.37628e-08
1.3731e-06
-8.7128e-08
1.41399e-06
-8.09762e-08
1.45211e-06
-7.52816e-08
1.48769e-06
-7.00187e-08
1.52091e-06
-6.51631e-08
1.55196e-06
-6.06911e-08
1.58103e-06
-5.65805e-08
1.60827e-06
-5.28097e-08
1.63385e-06
-4.93582e-08
1.6579e-06
-4.62062e-08
1.68057e-06
-4.33351e-08
1.70199e-06
-4.07269e-08
1.72227e-06
-3.8365e-08
1.74153e-06
-3.62333e-08
1.75987e-06
-3.43167e-08
1.77739e-06
-3.26008e-08
1.79419e-06
-3.10718e-08
1.81034e-06
-2.97169e-08
1.82593e-06
-2.85239e-08
1.84103e-06
-2.74812e-08
1.85571e-06
-2.65771e-08
1.87002e-06
-2.58002e-08
1.88403e-06
-2.51392e-08
1.89778e-06
-2.45836e-08
1.91132e-06
-2.41236e-08
1.92469e-06
-2.37499e-08
1.93793e-06
-2.34533e-08
1.95106e-06
-2.32246e-08
1.96412e-06
-2.30551e-08
1.97714e-06
-2.29362e-08
1.99012e-06
-2.28596e-08
2.00309e-06
-2.28176e-08
2.01606e-06
-2.28033e-08
2.02904e-06
-2.28095e-08
2.04204e-06
-2.28299e-08
2.05505e-06
-2.2859e-08
2.06809e-06
-2.28919e-08
2.08115e-06
-2.29236e-08
2.09423e-06
-2.29496e-08
2.10732e-06
-2.29668e-08
2.12043e-06
-2.29735e-08
2.13354e-06
-2.29686e-08
2.14666e-06
-2.29509e-08
2.15977e-06
-2.29194e-08
2.17288e-06
-2.28736e-08
2.18597e-06
-2.28142e-08
2.19904e-06
-2.27425e-08
2.21208e-06
-2.26594e-08
2.2251e-06
-2.25662e-08
2.23808e-06
-2.24649e-08
2.25103e-06
-2.23582e-08
2.26395e-06
-2.22488e-08
2.27684e-06
-2.21386e-08
2.2897e-06
-2.20288e-08
2.30253e-06
-2.1922e-08
2.31534e-06
-2.18206e-08
2.32812e-06
-2.17257e-08
2.3409e-06
-2.164e-08
2.35365e-06
-2.15637e-08
2.3664e-06
-2.14926e-08
2.37914e-06
-2.14236e-08
2.39187e-06
-2.13496e-08
2.40459e-06
-2.12555e-08
2.41732e-06
-2.11163e-08
2.43019e-06
-2.09089e-08
2.44316e-06
-2.08966e-08
2.45614e-06
-2.09062e-08
2.46912e-06
-2.06234e-08
2.48192e-06
-2.01958e-08
2.49439e-06
-1.95915e-08
2.50637e-06
-1.87085e-08
2.51765e-06
-1.74e-08
2.5279e-06
-1.545e-08
2.53668e-06
-1.25364e-08
2.5432e-06
-8.16547e-09
2.54629e-06
-1.54945e-09
2.54403e-06
9.05812e-09
2.53298e-06
2.76137e-08
2.50717e-06
6.31703e-08
1.39258e-07
2.46761e-06
-1.60135e-07
2.92347e-07
-3.16726e-07
3.70667e-07
-4.68745e-07
4.17319e-07
-6.20242e-07
4.50168e-07
-7.73287e-07
4.73087e-07
-9.2823e-07
4.88511e-07
-1.08459e-06
4.98237e-07
-1.24165e-06
5.03568e-07
-1.39866e-06
5.05448e-07
-1.55496e-06
5.04577e-07
-1.71001e-06
5.01494e-07
-1.86333e-06
4.96633e-07
-2.01456e-06
4.90348e-07
-2.1634e-06
4.82936e-07
-2.30961e-06
4.74641e-07
-2.45303e-06
4.65671e-07
-2.59352e-06
4.56198e-07
-2.73099e-06
4.46362e-07
-2.86537e-06
4.36277e-07
-2.99662e-06
4.26033e-07
-3.12471e-06
4.157e-07
-3.24961e-06
4.05327e-07
-3.37133e-06
3.94948e-07
-3.48985e-06
3.84583e-07
-3.60516e-06
3.74237e-07
-3.71724e-06
3.63904e-07
-3.82608e-06
3.53568e-07
-3.93165e-06
3.43202e-07
-4.03391e-06
3.3277e-07
-4.13279e-06
3.22228e-07
-4.22825e-06
3.11523e-07
-4.32017e-06
3.00593e-07
-4.40847e-06
2.89371e-07
-4.493e-06
2.77777e-07
-4.57361e-06
2.65723e-07
-4.65012e-06
2.53113e-07
-4.72231e-06
2.3984e-07
-4.78994e-06
2.25789e-07
-4.85272e-06
2.10834e-07
-4.91032e-06
1.94842e-07
-4.96237e-06
1.77668e-07
-5.00847e-06
1.59164e-07
-5.04816e-06
1.39176e-07
-5.08093e-06
1.17548e-07
-5.10623e-06
9.4131e-08
-5.12347e-06
6.87847e-08
-5.13201e-06
4.13839e-08
-5.1312e-06
1.18317e-08
-5.12035e-06
-1.99306e-08
-5.09879e-06
-5.38771e-08
-5.06584e-06
-8.98907e-08
-5.02087e-06
-1.27787e-07
-4.96334e-06
-1.67309e-07
-4.89279e-06
-2.08122e-07
-4.8089e-06
-2.49815e-07
-4.71147e-06
-2.91915e-07
-4.60052e-06
-3.3389e-07
-4.47625e-06
-3.75171e-07
-4.33903e-06
-4.15165e-07
-4.18948e-06
-4.53282e-07
-4.0284e-06
-4.88958e-07
-3.85677e-06
-5.21676e-07
-3.67573e-06
-5.50988e-07
-3.48655e-06
-5.76531e-07
-3.29059e-06
-5.98032e-07
-3.08924e-06
-6.15317e-07
-2.88394e-06
-6.28307e-07
-2.67611e-06
-6.37013e-07
-2.46713e-06
-6.41533e-07
-2.25829e-06
-6.42042e-07
-2.05084e-06
-6.38777e-07
-1.84587e-06
-6.32033e-07
-1.64439e-06
-6.22143e-07
-1.44727e-06
-6.09466e-07
-1.25524e-06
-5.94372e-07
-1.06893e-06
-5.77242e-07
-8.88807e-07
-5.58439e-07
-7.15242e-07
-5.38331e-07
-5.48468e-07
-5.17283e-07
-3.88607e-07
-4.95609e-07
-2.35659e-07
-4.73661e-07
-8.95621e-08
-4.51695e-07
4.94996e-08
-4.29884e-07
1.80854e-07
-4.07893e-07
3.04385e-07
-3.85892e-07
4.20454e-07
-3.64024e-07
5.29516e-07
-3.42506e-07
6.31923e-07
-3.21579e-07
7.27995e-07
-3.01402e-07
8.1804e-07
-2.82077e-07
9.02358e-07
-2.63664e-07
9.8125e-07
-2.46194e-07
1.05501e-06
-2.29677e-07
1.12393e-06
-2.14111e-07
1.1883e-06
-1.99481e-07
1.2484e-06
-1.85763e-07
1.30449e-06
-1.72929e-07
1.35685e-06
-1.60947e-07
1.40573e-06
-1.49781e-07
1.45136e-06
-1.39394e-07
1.49398e-06
-1.29749e-07
1.53382e-06
-1.20809e-07
1.57107e-06
-1.12535e-07
1.60595e-06
-1.04893e-07
1.63863e-06
-9.78448e-08
1.6693e-06
-9.13579e-08
1.69812e-06
-8.53993e-08
1.72524e-06
-7.99375e-08
1.75083e-06
-7.49426e-08
1.77501e-06
-7.03857e-08
1.79791e-06
-6.62395e-08
1.81966e-06
-6.24778e-08
1.84038e-06
-5.9076e-08
1.86016e-06
-5.60105e-08
1.8791e-06
-5.32588e-08
1.8973e-06
-5.07997e-08
1.91484e-06
-4.86129e-08
1.93181e-06
-4.66792e-08
1.94827e-06
-4.49802e-08
1.96428e-06
-4.34982e-08
1.97992e-06
-4.22158e-08
1.99524e-06
-4.11162e-08
2.01029e-06
-4.01831e-08
2.02511e-06
-3.94012e-08
2.03975e-06
-3.87563e-08
2.05423e-06
-3.8234e-08
2.0686e-06
-3.78207e-08
2.08289e-06
-3.75031e-08
2.0971e-06
-3.72685e-08
2.11127e-06
-3.71048e-08
2.12542e-06
-3.70002e-08
2.13954e-06
-3.69432e-08
2.15367e-06
-3.6924e-08
2.16779e-06
-3.69335e-08
2.18193e-06
-3.69627e-08
2.19607e-06
-3.70031e-08
2.21022e-06
-3.70468e-08
2.22439e-06
-3.70881e-08
2.23857e-06
-3.71227e-08
2.25275e-06
-3.71469e-08
2.26693e-06
-3.71572e-08
2.28112e-06
-3.7151e-08
2.29529e-06
-3.71271e-08
2.30946e-06
-3.70853e-08
2.32361e-06
-3.70255e-08
2.33775e-06
-3.69484e-08
2.35187e-06
-3.68556e-08
2.36596e-06
-3.67492e-08
2.38002e-06
-3.66317e-08
2.39406e-06
-3.65058e-08
2.40808e-06
-3.63743e-08
2.42207e-06
-3.62408e-08
2.43604e-06
-3.61089e-08
2.44999e-06
-3.59813e-08
2.46393e-06
-3.58599e-08
2.47786e-06
-3.5748e-08
2.49178e-06
-3.56478e-08
2.5057e-06
-3.5561e-08
2.51963e-06
-3.54873e-08
2.53355e-06
-3.54221e-08
2.54749e-06
-3.53595e-08
2.56143e-06
-3.52914e-08
2.57538e-06
-3.52046e-08
2.58935e-06
-3.50828e-08
2.60336e-06
-3.49201e-08
2.61729e-06
-3.48222e-08
2.63107e-06
-3.46836e-08
2.64475e-06
-3.43e-08
2.65822e-06
-3.36738e-08
2.67138e-06
-3.27471e-08
2.68406e-06
-3.13869e-08
2.69606e-06
-2.93956e-08
2.70709e-06
-2.64818e-08
2.71676e-06
-2.22049e-08
2.72447e-06
-1.58759e-08
2.72929e-06
-6.36518e-09
2.72989e-06
8.45848e-09
2.72461e-06
3.28906e-08
2.71233e-06
7.54479e-08
1.52133e-07
2.69946e-06
-1.59749e-07
4.52097e-07
-3.17588e-07
5.28505e-07
-4.70716e-07
5.70444e-07
-6.20933e-07
6.00386e-07
-7.69524e-07
6.21676e-07
-9.17077e-07
6.36062e-07
-1.06372e-06
6.44879e-07
-1.20934e-06
6.49187e-07
-1.35372e-06
6.49828e-07
-1.49662e-06
6.47477e-07
-1.63781e-06
6.42686e-07
-1.77709e-06
6.35913e-07
-1.91428e-06
6.27544e-07
-2.04925e-06
6.17903e-07
-2.18188e-06
6.07266e-07
-2.31207e-06
5.95864e-07
-2.43976e-06
5.83888e-07
-2.56489e-06
5.71496e-07
-2.68743e-06
5.58813e-07
-2.80734e-06
5.4594e-07
-2.92459e-06
5.32952e-07
-3.03917e-06
5.19902e-07
-3.15105e-06
5.06828e-07
-3.26021e-06
4.93745e-07
-3.36663e-06
4.80656e-07
-3.47027e-06
4.6755e-07
-3.57111e-06
4.54403e-07
-3.66908e-06
4.4118e-07
-3.76415e-06
4.27835e-07
-3.85623e-06
4.14311e-07
-3.94525e-06
4.00542e-07
-4.03111e-06
3.86449e-07
-4.11368e-06
3.71945e-07
-4.19284e-06
3.56931e-07
-4.26842e-06
3.41296e-07
-4.34023e-06
3.24919e-07
-4.40806e-06
3.07665e-07
-4.47166e-06
2.89386e-07
-4.53074e-06
2.6992e-07
-4.585e-06
2.49095e-07
-4.63405e-06
2.26726e-07
-4.67751e-06
2.02617e-07
-4.7149e-06
1.76569e-07
-4.74573e-06
1.48378e-07
-4.76944e-06
1.17845e-07
-4.78544e-06
8.4784e-08
-4.79308e-06
4.9026e-08
-4.79169e-06
1.04385e-08
-4.78056e-06
-3.10622e-08
-4.75898e-06
-7.54618e-08
-4.72623e-06
-1.22636e-07
-4.68166e-06
-1.72357e-07
-4.62468e-06
-2.24296e-07
-4.55478e-06
-2.78018e-07
-4.47161e-06
-3.32984e-07
-4.37497e-06
-3.8856e-07
-4.26483e-06
-4.44026e-07
-4.1414e-06
-4.98602e-07
-4.00509e-06
-5.5147e-07
-3.85657e-06
-6.01812e-07
-3.69668e-06
-6.48844e-07
-3.5265e-06
-6.91855e-07
-3.34726e-06
-7.30238e-07
-3.16028e-06
-7.63509e-07
-2.967e-06
-7.91315e-07
-2.76887e-06
-8.13439e-07
-2.56738e-06
-8.29796e-07
-2.36396e-06
-8.40434e-07
-2.15998e-06
-8.45515e-07
-1.95672e-06
-8.45304e-07
-1.75535e-06
-8.40143e-07
-1.55694e-06
-8.30442e-07
-1.36241e-06
-8.16677e-07
-1.17253e-06
-7.99342e-07
-9.87973e-07
-7.7893e-07
-8.09248e-07
-7.55968e-07
-6.36766e-07
-7.30922e-07
-4.70824e-07
-7.04274e-07
-3.11584e-07
-6.76522e-07
-1.59192e-07
-6.48001e-07
-1.36234e-08
-6.19229e-07
1.24601e-07
-5.89919e-07
2.55076e-07
-5.60359e-07
3.78051e-07
-5.30868e-07
4.93825e-07
-5.01667e-07
6.02771e-07
-4.7297e-07
7.05242e-07
-4.44977e-07
8.0154e-07
-4.17877e-07
8.91949e-07
-3.91812e-07
9.76749e-07
-3.66877e-07
1.05622e-06
-3.43133e-07
1.13063e-06
-3.2061e-07
1.20027e-06
-2.99317e-07
1.26541e-06
-2.79248e-07
1.32632e-06
-2.60383e-07
1.38325e-06
-2.42693e-07
1.43646e-06
-2.26142e-07
1.4862e-06
-2.10689e-07
1.53271e-06
-1.96289e-07
1.57621e-06
-1.82896e-07
1.61693e-06
-1.70462e-07
1.65506e-06
-1.5894e-07
1.69081e-06
-1.48281e-07
1.72435e-06
-1.38439e-07
1.75588e-06
-1.29369e-07
1.78555e-06
-1.21026e-07
1.81352e-06
-1.13367e-07
1.83994e-06
-1.06353e-07
1.86494e-06
-9.99441e-08
1.88865e-06
-9.41027e-08
1.91121e-06
-8.87933e-08
1.93271e-06
-8.39817e-08
1.95327e-06