/*--------------------------------*- C++ -*----------------------------------*\
| =========                 |                                                 |
| \\      /  F ield         | OpenFOAM: The Open Source CFD Toolbox           |
|  \\    /   O peration     | Version:  1.4.2                                 |
|   \\  /    A nd           | Web:      http://www.openfoam.org               |
|    \\/     M anipulation  |                                                 |
\*---------------------------------------------------------------------------*/
FoamFile
{
    version     2.0;
    format      ascii;
    class       volVectorField;
    object      U;
    location    "150";
}
// * * * * * * * * * * * * * * * * * * * * * * * * * * * * * * * * * * * * * //

dimensions      [0 1 -1 0 0 0 0];

internalField   nonuniform List<vector> 
12225
(
(9.77608 0.0381353 0)
(9.58056 0.0389203 0)
(9.36467 0.0372016 0)
(9.15672 0.0364104 0)
(8.96299 0.0355371 0)
(8.78151 0.0344096 0)
(8.61155 0.0330969 0)
(8.45398 0.0314793 0)
(8.31081 0.0290153 0)
(8.18602 0.0242181 0)
(8.08777 0.0142165 0)
(8.03738 -0.00266236 0)
(8.0652 -0.0225157 0)
(8.16608 -0.0376105 0)
(8.30642 -0.0429621 0)
(8.44399 -0.0346104 0)
(8.54506 -0.0207092 0)
(8.65014 -0.0172823 0)
(10.0038 0.0587639 0)
(10.0067 0.055953 0)
(9.98038 0.0525283 0)
(9.94606 0.0523495 0)
(9.91028 0.0522969 0)
(9.87276 0.0517361 0)
(9.83394 0.0506358 0)
(9.79553 0.0484892 0)
(9.76026 0.0439704 0)
(9.7324 0.0349295 0)
(9.71699 0.0197817 0)
(9.70763 0.000814952 0)
(9.68006 -0.0160915 0)
(9.62701 -0.0270784 0)
(9.56275 -0.0323713 0)
(9.50775 -0.0315746 0)
(9.46582 -0.0259321 0)
(9.44558 -0.0145251 0)
(10.0172 0.0527526 0)
(10.0359 0.0533999 0)
(10.0357 0.0524089 0)
(10.0288 0.0538018 0)
(10.0207 0.0548395 0)
(10.011 0.0550669 0)
(9.99983 0.0544844 0)
(9.98788 0.0524849 0)
(9.97582 0.0477313 0)
(9.9634 0.0388287 0)
(9.94709 0.0261334 0)
(9.92046 0.0125639 0)
(9.8804 0.00123655 0)
(9.83026 -0.00646705 0)
(9.77667 -0.0103519 0)
(9.72816 -0.0101988 0)
(9.68777 -0.00727139 0)
(9.65922 -0.00256059 0)
(10.0156 0.0454371 0)
(10.0364 0.051182 0)
(10.0432 0.0523316 0)
(10.0439 0.0544971 0)
(10.043 0.0561127 0)
(10.0407 0.0568924 0)
(10.0368 0.0568416 0)
(10.0316 0.0554663 0)
(10.0246 0.051797 0)
(10.0146 0.0450856 0)
(9.99793 0.0359813 0)
(9.97173 0.0264293 0)
(9.93685 0.0180546 0)
(9.89702 0.0116232 0)
(9.85642 0.00755302 0)
(9.81941 0.00625972 0)
(9.78786 0.00699815 0)
(9.7636 0.00916262 0)
(10.0123 0.0377603 0)
(10.0319 0.0475943 0)
(10.0417 0.050841 0)
(10.0458 0.053833 0)
(10.0479 0.0560311 0)
(10.0485 0.0573606 0)
(10.0475 0.0579002 0)
(10.0447 0.0573337 0)
(10.0396 0.0550735 0)
(10.0307 0.0508626 0)
(10.0154 0.0453533 0)
(9.99263 0.0394811 0)
(9.96413 0.0336742 0)
(9.93312 0.0282442 0)
(9.90245 0.0238156 0)
(9.87468 0.0210709 0)
(9.85116 0.0197801 0)
(9.83282 0.0195811 0)
(10.0091 0.0311255 0)
(10.0261 0.0432685 0)
(10.0371 0.0483757 0)
(10.0431 0.0522938 0)
(10.047 0.0551743 0)
(10.0492 0.0571436 0)
(10.0496 0.058372 0)
(10.0481 0.0587517 0)
(10.0441 0.0580309 0)
(10.0362 0.0562784 0)
(10.0228 0.0539669 0)
(10.0038 0.0510799 0)
(9.98124 0.047182 0)
(9.95762 0.0423901 0)
(9.93492 0.0374937 0)
(9.91478 0.0333537 0)
(9.89825 0.0300993 0)
(9.88582 0.0275114 0)
(10.0065 0.0255966 0)
(10.0204 0.0387445 0)
(10.0313 0.0452684 0)
(10.0383 0.0500485 0)
(10.0433 0.0536637 0)
(10.0465 0.0563597 0)
(10.0479 0.0583886 0)
(10.0473 0.059834 0)
(10.0441 0.0607349 0)
(10.0373 0.0613397 0)
(10.0259 0.0617321 0)
(10.0107 0.06104 0)
(9.99349 0.0583479 0)
(9.97623 0.0537856 0)
(9.96025 0.0482672 0)
(9.94663 0.0427302 0)
(9.93622 0.0375034 0)
(9.92928 0.0324503 0)
(10.0048 0.0216871 0)
(10.0162 0.0350074 0)
(10.0263 0.0423777 0)
(10.0335 0.0477877 0)
(10.0389 0.0519932 0)
(10.0427 0.0553257 0)
(10.0447 0.0581041 0)
(10.0447 0.0605381 0)
(10.0422 0.0628514 0)
(10.0364 0.0653126 0)
(10.027 0.0675385 0)
(10.015 0.0680647 0)
(10.002 0.065821 0)
(9.98935 0.0610555 0)
(9.97818 0.0547767 0)
(9.96928 0.0479475 0)
(9.96332 0.0409851 0)
(9.96043 0.0337924 0)
(10.0037 0.018728 0)
(10.013 0.0318302 0)
(10.0222 0.0397222 0)
(10.0293 0.0456159 0)
(10.0349 0.0503102 0)
(10.0389 0.054197 0)
(10.0414 0.0576465 0)
(10.0419 0.0609646 0)
(10.0402 0.064483 0)
(10.0357 0.0684136 0)
(10.0284 0.0719773 0)
(10.0191 0.0733175 0)
(10.0095 0.0712911 0)
(10.0005 0.0662219 0)
(9.99295 0.0591718 0)
(9.98753 0.0511293 0)
(9.9848 0.0425856 0)
(9.98481 0.0334888 0)
(10.0027 0.0160901 0)
(10.0102 0.0286424 0)
(10.0183 0.0368484 0)
(10.025 0.0431357 0)
(10.0305 0.0482909 0)
(10.0348 0.0527373 0)
(10.0376 0.0568795 0)
(10.0387 0.0610949 0)
(10.038 0.0657753 0)
(10.0351 0.0710281 0)
(10.0301 0.0757029 0)
(10.0238 0.0776331 0)
(10.0175 0.0756398 0)
(10.0119 0.0701106 0)
(10.0076 0.0621473 0)
(10.0053 0.0527609 0)
(10.0053 0.0425069 0)
(10.0078 0.031409 0)
(10.0019 0.0137706 0)
(10.0078 0.0255257 0)
(10.0148 0.0338329 0)
(10.021 0.0403934 0)
(10.0262 0.0459447 0)
(10.0305 0.0509159 0)
(10.0337 0.0557236 0)
(10.0355 0.0607823 0)
(10.0358 0.0664943 0)
(10.0346 0.0728434 0)
(10.032 0.0783581 0)
(10.0287 0.0806425 0)
(10.0255 0.0785027 0)
(10.023 0.0723723 0)
(10.0218 0.0633792 0)
(10.0222 0.0525596 0)
(10.0246 0.0405334 0)
(10.0289 0.0274332 0)
(10.0014 0.0117593 0)
(10.0059 0.022545 0)
(10.0117 0.0307376 0)
(10.0173 0.037434 0)
(10.0223 0.0432808 0)
(10.0266 0.0486941 0)
(10.0301 0.0540772 0)
(10.0325 0.0598413 0)
(10.034 0.0663628 0)
(10.0344 0.0735038 0)
(10.0342 0.0795468 0)
(10.0337 0.0819383 0)
(10.0334 0.0794848 0)
(10.0338 0.0726449 0)
(10.0352 0.06256 0)
(10.0379 0.0502953 0)
(10.042 0.0365415 0)
(10.0477 0.0215606 0)
(10.001 0.0100238 0)
(10.0045 0.019735 0)
(10.0093 0.0276029 0)
(10.0143 0.0342774 0)
(10.019 0.0402848 0)
(10.0233 0.0460061 0)
(10.0271 0.0518083 0)
(10.0302 0.0580645 0)
(10.0327 0.0650974 0)
(10.0348 0.0726596 0)
(10.0367 0.0788777 0)
(10.0386 0.0811086 0)
(10.0409 0.0781771 0)
(10.0437 0.07056 0)
(10.0473 0.0594023 0)
(10.0518 0.0457954 0)
(10.0572 0.0305006 0)
(10.0636 0.0139124 0)
(10.0008 0.00850464 0)
(10.0035 0.017081 0)
(10.0076 0.0244247 0)
(10.012 0.0308958 0)
(10.0165 0.0368906 0)
(10.0209 0.0427332 0)
(10.025 0.0487347 0)
(10.0288 0.0552101 0)
(10.0324 0.0624102 0)
(10.0359 0.0699916 0)
(10.0396 0.076003 0)
(10.0436 0.0778 0)
(10.048 0.0742536 0)
(10.0527 0.065862 0)
(10.0579 0.0537642 0)
(10.0635 0.0390638 0)
(10.0696 0.0225805 0)
(10.0762 0.00482468 0)
(10.0006 0.00711912 0)
(10.0028 0.0145116 0)
(10.0064 0.0211371 0)
(10.0105 0.027195 0)
(10.0149 0.0329601 0)
(10.0194 0.0386841 0)
(10.0239 0.0446113 0)
(10.0285 0.0509894 0)
(10.033 0.0579955 0)
(10.0378 0.0652031 0)
(10.043 0.0706473 0)
(10.0486 0.0717811 0)
(10.0545 0.067567 0)
(10.0605 0.0585237 0)
(10.0666 0.045767 0)
(10.0727 0.0303895 0)
(10.0789 0.0132411 0)
(10.0849 -0.00508615 0)
(10.0005 0.0057706 0)
(10.0025 0.011899 0)
(10.0057 0.0176023 0)
(10.0097 0.0230023 0)
(10.0142 0.028274 0)
(10.0189 0.0335921 0)
(10.0239 0.0391289 0)
(10.0291 0.0450656 0)
(10.0346 0.0515181 0)
(10.0404 0.0580077 0)
(10.0468 0.0626258 0)
(10.0535 0.0630042 0)
(10.0603 0.0582316 0)
(10.0669 0.048836 0)
(10.0733 0.0358821 0)
(10.0792 0.0204165 0)
(10.0848 0.00327951 0)
(10.0898 -0.0149005 0)
(10.0005 0.00434515 0)
(10.0024 0.00905516 0)
(10.0055 0.0135986 0)
(10.0096 0.0180588 0)
(10.0142 0.0225337 0)
(10.0194 0.0271213 0)
(10.0249 0.0319241 0)
(10.0308 0.0370646 0)
(10.037 0.0426219 0)
(10.0437 0.0481352 0)
(10.0509 0.0518496 0)
(10.0583 0.0516224 0)
(10.0654 0.0466515 0)
(10.072 0.0374362 0)
(10.0779 0.0249505 0)
(10.083 0.0101531 0)
(10.0875 -0.00617064 0)
(10.0911 -0.0234085 0)
(10.0005 0.0028106 0)
(10.0025 0.00594836 0)
(10.0058 0.00913865 0)
(10.0101 0.0124378 0)
(10.015 0.015878 0)
(10.0206 0.0194862 0)
(10.0266 0.0233017 0)
(10.033 0.0273987 0)
(10.0398 0.0318538 0)
(10.0472 0.0363251 0)
(10.0549 0.0393309 0)
(10.0624 0.0389489 0)
(10.0694 0.034397 0)
(10.0755 0.026076 0)
(10.0806 0.0148264 0)
(10.0847 0.0014822 0)
(10.0877 -0.0132649 0)
(10.0898 -0.0288649 0)
(10.0005 0.00123854 0)
(10.0027 0.00276292 0)
(10.0064 0.00456757 0)
(10.011 0.00667714 0)
(10.0164 0.00905296 0)
(10.0224 0.0116569 0)
(10.0288 0.0144709 0)
(10.0356 0.0175268 0)
(10.0428 0.0209167 0)
(10.0504 0.0244869 0)
(10.0583 0.0271248 0)
(10.0659 0.0271034 0)
(10.0725 0.023546 0)
(10.078 0.0166787 0)
(10.0823 0.00718079 0)
(10.0853 -0.00425078 0)
(10.0871 -0.017033 0)
(10.0878 -0.0306958 0)
(10.0006 -0.000359256 0)
(10.0032 -0.000433104 0)
(10.0073 6.5235e-05 0)
(10.0125 0.00109391 0)
(10.0183 0.00252547 0)
(10.0246 0.0042573 0)
(10.0313 0.00621761 0)
(10.0384 0.00839657 0)
(10.0457 0.0108893 0)
(10.0534 0.0137238 0)
(10.0614 0.0162018 0)
(10.0688 0.0168261 0)
(10.0752 0.0145701 0)
(10.0802 0.00942486 0)
(10.0837 0.00188911 0)
(10.0857 -0.00747892 0)
(10.0865 -0.0182052 0)
(10.0861 -0.0299016 0)
(10.0008 -0.00207491 0)
(10.0039 -0.0037536 0)
(10.0087 -0.00444882 0)
(10.0145 -0.00435143 0)
(10.0208 -0.00370585 0)
(10.0275 -0.00267515 0)
(10.0345 -0.00137527 0)
(10.0416 0.000141623 0)
(10.049 0.00195292 0)
(10.0566 0.0042092 0)
(10.0643 0.00660362 0)
(10.0715 0.00795214 0)
(10.0776 0.00710837 0)
(10.0821 0.00378924 0)
(10.085 -0.00171066 0)
(10.0863 -0.00897708 0)
(10.0861 -0.017644 0)
(10.0848 -0.0274056 0)
(10.0011 -0.0040225 0)
(10.005 -0.00731206 0)
(10.0108 -0.00903832 0)
(10.0172 -0.00968786 0)
(10.024 -0.0096507 0)
(10.0311 -0.00913572 0)
(10.0383 -0.00829322 0)
(10.0455 -0.00721022 0)
(10.0528 -0.00583612 0)
(10.0601 -0.00397 0)
(10.0673 -0.0016169 0)
(10.0742 0.000414941 0)
(10.0798 0.000959071 0)
(10.0838 -0.000543046 0)
(10.086 -0.00402499 0)
(10.0866 -0.0092229 0)
(10.0856 -0.0158767 0)
(10.0834 -0.0237637 0)
(10.0015 -0.00634445 0)
(10.0067 -0.0112099 0)
(10.0136 -0.0137298 0)
(10.0208 -0.0149116 0)
(10.028 -0.0152962 0)
(10.0354 -0.0151148 0)
(10.0427 -0.0145414 0)
(10.0499 -0.0136811 0)
(10.0569 -0.0125022 0)
(10.0638 -0.0108028 0)
(10.0705 -0.00841163 0)
(10.0767 -0.00577005 0)
(10.0817 -0.00393936 0)
(10.085 -0.00370826 0)
(10.0865 -0.00525479 0)
(10.0863 -0.00846776 0)
(10.0844 -0.0131876 0)
(10.0812 -0.0192782 0)
(10.0023 -0.00922376 0)
(10.0091 -0.0155153 0)
(10.0173 -0.0184865 0)
(10.0251 -0.0199535 0)
(10.0326 -0.0205669 0)
(10.0401 -0.0205493 0)
(10.0473 -0.020088 0)
(10.0544 -0.019288 0)
(10.0611 -0.0181147 0)
(10.0674 -0.0163697 0)
(10.0734 -0.0138029 0)
(10.0787 -0.0105793 0)
(10.0829 -0.00757648 0)
(10.0853 -0.00573206 0)
(10.0859 -0.00546177 0)
(10.0846 -0.00680021 0)
(10.0817 -0.00968712 0)
(10.0774 -0.0140782 0)
(10.0035 -0.0128803 0)
(10.0125 -0.0202154 0)
(10.0218 -0.0231776 0)
(10.0298 -0.0246644 0)
(10.0373 -0.0253238 0)
(10.0445 -0.0253302 0)
(10.0514 -0.0248724 0)
(10.058 -0.0240368 0)
(10.0642 -0.0227562 0)
(10.07 -0.0208089 0)
(10.0752 -0.0179074 0)
(10.0796 -0.0140577 0)
(10.0827 -0.00995432 0)
(10.084 -0.00659579 0)
(10.0833 -0.00460209 0)
(10.0807 -0.00416523 0)
(10.0763 -0.00533406 0)
(10.0706 -0.00815019 0)
(10.0052 -0.0175687 0)
(10.0168 -0.0251373 0)
(10.0267 -0.0275342 0)
(10.0343 -0.0287977 0)
(10.041 -0.0293496 0)
(10.0475 -0.0292776 0)
(10.0536 -0.0287656 0)
(10.0593 -0.0278658 0)
(10.0648 -0.0264524 0)
(10.0699 -0.0242416 0)
(10.0744 -0.0208903 0)
(10.0779 -0.0163107 0)
(10.0799 -0.0110651 0)
(10.0797 -0.00617919 0)
(10.0773 -0.00247137 0)
(10.0727 -0.000331425 0)
(10.0664 6.83607e-05 0)
(10.0587 -0.00136417 0)
(10.0076 -0.0236074 0)
(10.0215 -0.029927 0)
(10.0307 -0.031117 0)
(10.0366 -0.0319921 0)
(10.0418 -0.0323768 0)
(10.0467 -0.0322076 0)
(10.0513 -0.0316536 0)
(10.0557 -0.03073 0)
(10.0599 -0.0292429 0)
(10.064 -0.0268072 0)
(10.0677 -0.0229514 0)
(10.0705 -0.017457 0)
(10.0714 -0.0108234 0)
(10.0697 -0.00419756 0)
(10.065 0.00132377 0)
(10.0576 0.00510865 0)
(10.0482 0.00686524 0)
(10.0376 0.0065322 0)
(10.0102 -0.0304027 0)
(10.0246 -0.0336643 0)
(10.0306 -0.0331977 0)
(10.0327 -0.0336296 0)
(10.0344 -0.0338592 0)
(10.0359 -0.0336198 0)
(10.0371 -0.0330605 0)
(10.0383 -0.0321742 0)
(10.0397 -0.0307221 0)
(10.0414 -0.0282209 0)
(10.0435 -0.0240145 0)
(10.0458 -0.0176639 0)
(10.0466 -0.00953445 0)
(10.0441 -0.000958003 0)
(10.0371 0.00649143 0)
(10.0257 0.0118648 0)
(10.0112 0.0147434 0)
(9.99575 0.0151269 0)
(10.0064 -0.0362103 0)
(10.015 -0.037515 0)
(10.0086 -0.0354348 0)
(9.99773 -0.0350432 0)
(9.98714 -0.0347924 0)
(9.97678 -0.0342728 0)
(9.96651 -0.0335802 0)
(9.95665 -0.0327034 0)
(9.94764 -0.0314389 0)
(9.94014 -0.0293374 0)
(9.93512 -0.025606 0)
(9.9339 -0.0192691 0)
(9.93718 -0.00992134 0)
(9.94104 0.00129366 0)
(9.93675 0.0120721 0)
(9.92077 0.0207054 0)
(9.89783 0.0261535 0)
(9.87526 0.0277745 0)
(9.89309 -0.0247652 0)
(9.80416 -0.0269408 0)
(9.70099 -0.0262845 0)
(9.59961 -0.0260624 0)
(9.50514 -0.0257892 0)
(9.41666 -0.0253487 0)
(9.33337 -0.0248194 0)
(9.25519 -0.024225 0)
(9.18229 -0.0235062 0)
(9.11518 -0.0224942 0)
(9.05495 -0.0207754 0)
(9.00371 -0.0174338 0)
(8.96535 -0.0109673 0)
(8.94754 -0.000429554 0)
(8.95952 0.0126958 0)
(9.00182 0.0245474 0)
(9.06595 0.0287869 0)
(9.13665 0.026438 0)
(0.0093196 -0.0537861 0)
(-0.0138051 0.0511812 0)
(-0.110429 0.14381 0)
(-0.238832 0.185033 0)
(-0.381828 0.199335 0)
(-0.53286 0.203277 0)
(-0.68839 0.203345 -1.41428e-20)
(-0.846499 0.201652 1.32047e-20)
(-1.00589 0.198928 0)
(-1.16561 0.195503 1.22568e-20)
(-1.32489 0.191573 0)
(-1.48313 0.187276 0)
(-1.63985 0.182717 0)
(-1.79464 0.177979 -1.21398e-20)
(-1.9472 0.173131 0)
(-2.09726 0.168229 0)
(-2.24464 0.163318 1.26891e-20)
(-2.38919 0.158437 0)
(-2.53081 0.153613 0)
(-2.66944 0.148869 0)
(-2.80504 0.14422 -1.36822e-20)
(-2.93758 0.139677 0)
(-3.06707 0.135244 -1.42001e-20)
(-3.19351 0.130921 0)
(-3.31692 0.126705 0)
(-3.4373 0.122586 -1.49441e-20)
(-3.55468 0.118552 0)
(-3.66906 0.11459 1.53988e-20)
(-3.78044 0.110681 0)
(-3.88881 0.106806 -1.58085e-20)
(-3.99412 0.102943 0)
(-4.09634 0.0990666 0)
(-4.19538 0.0951502 0)
(-4.29115 0.0911639 0)
(-4.38353 0.0870761 0)
(-4.47235 0.0828527 1.66739e-20)
(-4.55742 0.0784564 0)
(-4.6385 0.073848 -3.36105e-20)
(-4.71532 0.0689869 0)
(-4.78755 0.0638305 3.36697e-20)
(-4.85482 0.0583348 0)
(-4.91671 0.0524559 0)
(-4.97275 0.046151 -3.32944e-20)
(-5.0224 0.0393795 0)
(-5.06506 0.0321045 -3.26658e-20)
(-5.1001 0.024293 3.22173e-20)
(-5.12689 0.0159151 0)
(-5.14473 0.00694944 3.10157e-20)
(-5.15278 -0.00259738 3.02318e-20)
(-5.15017 -0.012674 0)
(-5.13633 -0.0232328 0)
(-5.11057 -0.0342237 0)
(-5.07234 -0.04556 0)
(-5.02115 -0.0571383 0)
(-4.95669 -0.0688412 -2.21646e-20)
(-4.87875 -0.0805402 0)
(-4.7873 -0.0920992 1.81027e-20)
(-4.68249 -0.103379 0)
(-4.56463 -0.11424 0)
(-4.43423 -0.124548 -1.05615e-20)
(-4.29195 -0.134179 0)
(-4.13862 -0.14302 4.5242e-21)
(-3.97522 -0.150977 0)
(-3.80285 -0.157972 0)
(-3.62269 -0.163947 0)
(-3.43603 -0.168866 1.00853e-20)
(-3.24416 -0.172714 0)
(-3.04841 -0.175494 0)
(-2.85011 -0.177229 2.34009e-20)
(-2.65054 -0.177958 0)
(-2.45092 -0.177735 3.35227e-20)
(-2.25242 -0.176624 0)
(-2.05608 -0.174698 0)
(-1.86288 -0.172032 0)
(-1.67367 -0.168704 -5.73044e-20)
(-1.48919 -0.16479 0)
(-1.31009 -0.160363 0)
(-1.13691 -0.155489 -7.89655e-20)
(-0.970049 -0.150219 -8.70673e-20)
(-0.809857 -0.144583 0)
(-0.656567 -0.138616 -1.04798e-19)
(-0.510359 -0.13238 0)
(-0.371327 -0.126195 -2.50098e-19)
(-0.239537 -0.120592 0)
(-0.115217 -0.11593 -3.02227e-19)
(0.00532366 -0.110856 0)
(0.118835 -0.104249 3.25499e-19)
(0.225344 -0.0972611 0)
(0.325701 -0.0903785 0)
(0.419805 -0.0837243 0)
(0.507863 -0.0773665 -3.05257e-19)
(0.59015 -0.0713519 0)
(0.666963 -0.0657056 2.96901e-19)
(0.738605 -0.0604365 0)
(0.805379 -0.0555415 -2.89599e-19)
(0.867583 -0.0510101 -2.86358e-19)
(0.925506 -0.0468269 -2.83385e-19)
(0.979428 -0.0429736 0)
(1.02962 -0.0394303 0)
(1.07632 -0.0361768 0)
(1.1198 -0.0331928 0)
(1.16027 -0.030459 0)
(1.19796 -0.0279576 0)
(1.23307 -0.0256715 0)
(1.26581 -0.0235847 0)
(1.29635 -0.0216818 2.66446e-19)
(1.32487 -0.0199483 2.65387e-19)
(1.35153 -0.0183708 0)
(1.37648 -0.016937 0)
(1.39988 -0.015635 0)
(1.42186 -0.014454 2.62195e-19)
(1.44254 -0.0133844 0)
(1.46206 -0.0124173 0)
(1.48051 -0.0115448 0)
(1.49802 -0.0107596 0)
(1.51466 -0.0100545 -2.59843e-19)
(1.53055 -0.00942283 0)
(1.54576 -0.00885831 0)
(1.56038 -0.008355 2.58942e-19)
(1.57449 -0.00790755 -2.58691e-19)
(1.58814 -0.00751118 0)
(1.60142 -0.00716152 -2.58235e-19)
(1.61437 -0.00685439 0)
(1.62706 -0.00658563 2.57815e-19)
(1.63953 -0.00635127 0)
(1.65183 -0.00614769 0)
(1.664 -0.00597155 0)
(1.67607 -0.00581962 0)
(1.68809 -0.00568881 0)
(1.70008 -0.00557629 -5.13071e-19)
(1.71205 -0.00547948 -5.12598e-19)
(1.72404 -0.00539585 0)
(1.73606 -0.00532288 0)
(1.74812 -0.00525835 0)
(1.76024 -0.00520029 5.10509e-19)
(1.77241 -0.00514699 0)
(1.78464 -0.00509683 0)
(1.79694 -0.00504827 0)
(1.8093 -0.00499993 5.08103e-19)
(1.82172 -0.00495069 -5.07458e-19)
(1.83419 -0.00489986 0)
(1.84672 -0.00484695 0)
(1.85928 -0.00479134 -5.05434e-19)
(1.87189 -0.0047325 -5.04735e-19)
(1.88452 -0.00467048 0)
(1.89717 -0.00460578 0)
(1.90983 -0.0045385 5.02576e-19)
(1.9225 -0.00446837 -5.01837e-19)
(1.93516 -0.0043954 0)
(1.94782 -0.0043201 0)
(1.96047 -0.00424348 -4.99562e-19)
(1.9731 -0.00416671 0)
(1.98572 -0.00408986 0)
(1.99833 -0.00401245 -4.97178e-19)
(2.01092 -0.00393538 0)
(2.0235 -0.00385984 -4.95505e-19)
(2.03608 -0.00378595 0)
(2.04865 -0.00371388 0)
(2.06122 -0.00364378 0)
(2.0738 -0.00357551 4.91876e-19)
(2.08639 -0.00350896 0)
(2.09899 -0.00344248 0)
(2.11158 -0.0033707 0)
(2.12415 -0.00327664 0)
(2.13653 -0.00311265 0)
(2.14877 -0.00419605 0)
(2.16097 -0.00563805 4.86201e-19)
(2.1731 -0.00578346 4.85947e-19)
(2.18508 -0.00544061 0)
(2.19687 -0.00492872 0)
(2.20837 -0.00437332 0)
(2.21946 -0.00380811 -4.8214e-19)
(2.22985 -0.00321373 0)
(2.23913 -0.00254001 9.6076e-19)
(2.2466 -0.00173456 -9.60208e-19)
(2.2514 -0.000690036 -9.60546e-19)
(2.25214 0.000884386 9.61947e-19)
(2.24522 0.00369853 -9.66377e-19)
(2.22671 0.00971357 9.76497e-19)
(2.14288 0.0289858 0)
(-0.100238 0.118851 0)
(-0.181312 0.264375 0)
(-0.298934 0.35483 2.41178e-20)
(-0.426162 0.408244 0)
(-0.559608 0.438515 -1.77963e-20)
(-0.699361 0.455273 -1.64004e-20)
(-0.844078 0.463916 -7.76391e-21)
(-0.992036 0.467287 -7.46124e-21)
(-1.14179 0.466937 0)
(-1.29223 0.463809 -7.24552e-21)
(-1.44245 0.458543 0)
(-1.59177 0.451615 0)
(-1.73964 0.443397 1.47961e-20)
(-1.88561 0.434192 7.53709e-21)
(-2.02935 0.424248 -1.53184e-20)
(-2.17061 0.413771 -1.56296e-20)
(-2.30917 0.402932 -8.01817e-21)
(-2.44491 0.391874 0)
(-2.57771 0.38071 0)
(-2.70752 0.369532 0)
(-2.83429 0.358411 -8.61696e-21)
(-2.95799 0.3474 0)
(-3.07862 0.336535 2.71071e-20)
(-3.19618 0.325838 0)
(-3.31068 0.315319 0)
(-3.42213 0.304974 9.55159e-21)
(-3.53051 0.294792 0)
(-3.63583 0.284752 -9.82527e-21)
(-3.73808 0.274825 -1.97492e-20)
(-3.83722 0.264976 1.00593e-20)
(-3.93322 0.255163 0)
(-4.02602 0.245337 0)
(-4.11553 0.235445 0)
(-4.20167 0.225425 -2.06506e-20)
(-4.28431 0.215213 -2.07541e-20)
(-4.36329 0.204738 -1.04617e-20)
(-4.43844 0.193921 0)
(-4.50953 0.18268 2.09414e-20)
(-4.57632 0.170928 0)
(-4.63852 0.158572 -2.08034e-20)
(-4.6958 0.145516 0)
(-4.74779 0.131662 0)
(-4.79406 0.116913 2.02558e-20)
(-4.83414 0.101174 0)
(-4.86752 0.0843604 5.9147e-20)
(-4.89364 0.0663917 -1.92296e-20)
(-4.91193 0.0471951 0)
(-4.92179 0.0267109 -1.82453e-20)
(-4.92241 0.00491644 -1.76328e-20)
(-4.91321 -0.0180971 0)
(-4.89355 -0.0421583 0)
(-4.86279 -0.0671049 0)
(-4.82039 -0.0927302 0)
(-4.76588 -0.118786 0)
(-4.6989 -0.144987 1.217e-20)
(-4.61922 -0.171024 2.33875e-20)
(-4.52677 -0.196565 -9.71038e-21)
(-4.42162 -0.221273 0)
(-4.30405 -0.244815 1.56574e-20)
(-4.17449 -0.26687 -7.32753e-21)
(-4.03355 -0.287148 0)
(-3.88203 -0.305391 -2.26839e-21)
(-3.72086 -0.321389 0)
(-3.5511 -0.33498 0)
(-3.3739 -0.346057 3.54459e-21)
(-3.19052 -0.354565 -4.73068e-21)
(-3.00223 -0.360504 1.07706e-20)
(-2.81032 -0.363922 -1.44881e-20)
(-2.61609 -0.364913 -1.03518e-20)
(-2.42079 -0.363611 0)
(-2.22561 -0.360185 -1.4204e-20)
(-2.03167 -0.354826 0)
(-1.83999 -0.347745 0)
(-1.6515 -0.339159 0)
(-1.467 -0.32929 -1.97245e-20)
(-1.2872 -0.318355 0)
(-1.11269 -0.306564 -5.00444e-20)
(-0.943925 -0.294118 8.25086e-20)
(-0.781272 -0.281206 3.03719e-20)
(-0.624968 -0.267995 0)
(-0.475135 -0.254678 3.48032e-20)
(-0.331797 -0.241444 0)
(-0.194843 -0.22872 7.91159e-20)
(-0.0640382 -0.216601 0)
(0.0616365 -0.204873 8.69439e-20)
(0.179258 -0.192951 -1.72976e-19)
(0.289986 -0.180435 -8.92223e-20)
(0.394093 -0.168099 0)
(0.491905 -0.156242 0)
(0.583711 -0.144964 0)
(0.669799 -0.134312 9.38379e-20)
(0.750458 -0.124306 0)
(0.825977 -0.114943 -9.61968e-20)
(0.89664 -0.106213 0)
(0.962731 -0.098094 2.94249e-19)
(1.02453 -0.0905608 9.98524e-20)
(1.08229 -0.0835851 1.011e-19)
(1.1363 -0.0771368 0)
(1.18678 -0.0711852 0)
(1.23399 -0.0656998 0)
(1.27816 -0.0606509 0)
(1.31949 -0.0560101 0)
(1.35821 -0.0517501 2.16671e-19)
(1.3945 -0.0478454 2.19305e-19)
(1.42856 -0.0442716 0)
(1.46057 -0.0410055 -1.12603e-19)
(1.49068 -0.0380254 -1.13869e-19)
(1.51906 -0.0353108 0)
(1.54585 -0.0328423 -2.32194e-19)
(1.5712 -0.0306016 0)
(1.59523 -0.0285716 1.1834e-19)
(1.61807 -0.0267366 0)
(1.63984 -0.025082 0)
(1.66064 -0.0235945 -2.44347e-19)
(1.68057 -0.0222611 0)
(1.69974 -0.0210699 1.24654e-19)
(1.71822 -0.0200096 0)
(1.73611 -0.0190694 0)
(1.75347 -0.0182392 1.27629e-19)
(1.77039 -0.0175097 1.28996e-19)
(1.78693 -0.0168722 0)
(1.80314 -0.0163186 -1.30784e-19)
(1.81909 -0.0158406 0)
(1.83482 -0.0154306 1.32794e-19)
(1.85038 -0.0150814 2.67794e-19)
(1.86582 -0.0147863 0)
(1.88117 -0.0145392 0)
(1.89647 -0.0143341 0)
(1.91175 -0.0141651 0)
(1.92702 -0.0140269 2.77311e-19)
(1.94232 -0.0139145 8.36822e-19)
(1.95766 -0.013823 0)
(1.97305 -0.0137479 0)
(1.98851 -0.013685 0)
(2.00405 -0.0136309 -2.8596e-19)
(2.01968 -0.0135825 0)
(2.03538 -0.0135367 0)
(2.05118 -0.0134909 5.81454e-19)
(2.06706 -0.013443 2.92162e-19)
(2.08303 -0.0133914 2.94143e-19)
(2.09909 -0.0133352 0)
(2.11523 -0.0132736 0)
(2.13144 -0.0132059 2.98861e-19)
(2.14773 -0.0131315 -3.00055e-19)
(2.16408 -0.0130508 0)
(2.1805 -0.0129645 0)
(2.19698 -0.0128729 -3.04909e-19)
(2.2135 -0.0127762 9.1879e-19)
(2.23008 -0.0126751 0)
(2.24671 -0.0125709 0)
(2.26339 -0.0124652 3.10598e-19)
(2.28012 -0.0123597 0)
(2.2969 -0.0122549 6.26233e-19)
(2.31373 -0.0121508 -3.14254e-19)
(2.33061 -0.0120489 0)
(2.34756 -0.0119507 3.16957e-19)
(2.36456 -0.0118566 6.35926e-19)
(2.38165 -0.0117672 0)
(2.3988 -0.0116827 0)
(2.41604 -0.0116021 -3.21182e-19)
(2.43336 -0.0115241 0)
(2.45077 -0.0114452 6.45645e-19)
(2.46827 -0.0113569 0)
(2.48585 -0.0112384 0)
(2.5036 -0.0110419 0)
(2.52152 -0.0105951 0)
(2.53977 -0.0100216 -3.26215e-19)
(2.55808 -0.00963837 -3.26353e-19)
(2.57636 -0.00944211 0)
(2.5945 -0.00930463 0)
(2.61234 -0.00911319 0)
(2.62967 -0.00876997 3.24904e-19)
(2.64622 -0.00817128 0)
(2.6616 -0.00719035 -6.48327e-19)
(2.67522 -0.00566334 6.48414e-19)
(2.68599 -0.00330634 6.49364e-19)
(2.69247 0.000551467 6.49438e-19)
(2.69167 0.00749849 6.51681e-19)
(2.68173 0.021443 6.54259e-19)
(2.63443 0.055214 0)
(-0.115762 0.400842 0)
(-0.214761 0.547189 0)
(-0.344144 0.634698 -1.72232e-20)
(-0.479771 0.692957 -1.52136e-20)
(-0.615124 0.730454 1.30981e-20)
(-0.751752 0.753106 1.22361e-20)
(-0.890009 0.765108 -7.21605e-22)
(-1.02934 0.769312 0)
(-1.16908 0.767654 0)
(-1.3086 0.761495 0)
(-1.44737 0.751845 0)
(-1.58494 0.739488 0)
(-1.72093 0.725053 -3.63965e-20)
(-1.85506 0.709048 0)
(-1.9871 0.691892 1.23137e-20)
(-2.11685 0.673929 1.26148e-20)
(-2.24419 0.655439 0)
(-2.36901 0.63665 0)
(-2.49124 0.617744 0)
(-2.61084 0.598861 0)
(-2.72776 0.580107 1.42147e-20)
(-2.84199 0.561559 0)
(-2.9535 0.543265 -1.48318e-20)
(-3.0623 0.525255 0)
(-3.16836 0.507534 0)
(-3.27168 0.490094 0)
(-3.37224 0.47291 -3.21786e-20)
(-3.47 0.455945 0)
(-3.56495 0.439152 1.63884e-20)
(-3.65703 0.422472 -3.34405e-20)
(-3.74619 0.405836 0)
(-3.83235 0.389169 0)
(-3.91542 0.372384 0)
(-3.99529 0.355389 1.71691e-20)
(-4.07183 0.338082 1.72501e-20)
(-4.14488 0.320352 0)
(-4.21426 0.302082 0)
(-4.27975 0.283145 -3.48943e-20)
(-4.34112 0.263408 -3.48165e-20)
(-4.39807 0.242733 3.4668e-20)
(-4.45029 0.220974 0)
(-4.49742 0.197985 0)
(-4.53907 0.173617 0)
(-4.57478 0.147731 0)
(-4.60406 0.120196 -3.22464e-20)
(-4.62638 0.0908948 -3.2079e-20)
(-4.64121 0.0597322 3.13371e-20)
(-4.64796 0.0266425 0)
(-4.64584 -0.00838124 0)
(-4.63437 -0.0452457 0)
(-4.61287 -0.0837685 0)
(-4.58071 -0.123703 -2.57017e-20)
(-4.53733 -0.164729 0)
(-4.48225 -0.206458 0)
(-4.41509 -0.248436 -2.09409e-20)
(-4.33557 -0.290161 -1.80997e-20)
(-4.24359 -0.331091 0)
(-4.13921 -0.370665 3.04249e-20)
(-4.02267 -0.408324 -1.19434e-20)
(-3.8944 -0.443527 9.69926e-21)
(-3.75501 -0.475779 0)
(-3.60531 -0.504645 0)
(-3.44625 -0.529768 0)
(-3.27892 -0.550882 0)
(-3.10451 -0.567813 -2.6171e-21)
(-2.92428 -0.580484 -7.88812e-21)
(-2.73953 -0.588908 -7.84701e-21)
(-2.55155 -0.593182 1.04796e-20)
(-2.36163 -0.59348 0)
(-2.171 -0.590044 -2.89064e-20)
(-1.98083 -0.58317 -3.41262e-20)
(-1.7922 -0.573193 -3.93067e-20)
(-1.60607 -0.560477 4.4443e-20)
(-1.42332 -0.545397 0)
(-1.24469 -0.528332 8.30915e-20)
(-1.07082 -0.509654 0)
(-0.902207 -0.489717 -3.11214e-20)
(-0.739259 -0.468875 -3.59457e-20)
(-0.582263 -0.447465 0)
(-0.431397 -0.425803 0)
(-0.28677 -0.404267 -8.46733e-20)
(-0.148317 -0.383083 0)
(-0.0158202 -0.36232 -9.43493e-20)
(0.110049 -0.341869 0)
(0.228685 -0.321678 9.97375e-20)
(0.340288 -0.301628 2.05485e-19)
(0.445403 -0.281979 0)
(0.544369 -0.263003 0)
(0.637456 -0.244864 0)
(0.724943 -0.227649 1.10434e-19)
(0.807101 -0.211398 0)
(0.884199 -0.19612 1.14595e-19)
(0.956505 -0.181808 0)
(1.02428 -0.16844 0)
(1.08779 -0.155985 -2.42506e-19)
(1.14728 -0.144407 0)
(1.20301 -0.133665 -1.2499e-19)
(1.25522 -0.123718 0)
(1.30414 -0.114522 -1.29174e-19)
(1.35 -0.106033 0)
(1.39301 -0.0982103 0)
(1.43339 -0.0910116 0)
(1.47132 -0.0843971 -4.13148e-19)
(1.507 -0.0783285 -1.40092e-19)
(1.5406 -0.0727694 0)
(1.57228 -0.0676854 0)
(1.60222 -0.0630439 0)
(1.63055 -0.0588139 0)
(1.65742 -0.0549662 1.50242e-19)
(1.68295 -0.0514731 -3.03846e-19)
(1.70728 -0.0483086 -1.54204e-19)
(1.73053 -0.0454487 3.11762e-19)
(1.75279 -0.0428707 3.15658e-19)
(1.77417 -0.0405531 1.60005e-19)
(1.79478 -0.0384761 0)
(1.81469 -0.0366208 3.27087e-19)
(1.834 -0.0349696 0)
(1.85277 -0.0335059 -3.34491e-19)
(1.87108 -0.032214 -1.69268e-19)
(1.889 -0.0310793 0)
(1.90659 -0.0300878 3.45297e-19)
(1.92391 -0.0292261 1.74597e-19)
(1.94099 -0.0284815 0)
(1.9579 -0.0278419 1.77721e-19)
(1.97467 -0.0272963 -5.39016e-19)
(1.99135 -0.0268342 0)
(2.00795 -0.0264457 0)
(2.02453 -0.0261213 0)
(2.04109 -0.0258521 0)
(2.05766 -0.0256297 -3.76135e-19)
(2.07426 -0.0254461 -3.79781e-19)
(2.09091 -0.0252938 0)
(2.10762 -0.0251662 0)
(2.12439 -0.0250572 0)
(2.14124 -0.0249612 0)
(2.15817 -0.0248734 0)
(2.17518 -0.0247894 0)
(2.19227 -0.0247055 -4.03119e-19)
(2.20945 -0.0246188 -2.73918e-22)
(2.22671 -0.0245272 0)
(2.24404 -0.0244291 0)
(2.26146 -0.0243234 -4.16318e-19)
(2.27895 -0.0242093 0)
(2.29651 -0.0240865 4.23355e-19)
(2.31414 -0.0239551 4.26495e-19)
(2.33183 -0.0238158 0)
(2.34959 -0.0236694 0)
(2.3674 -0.0235171 -4.36922e-19)
(2.38527 -0.0233601 -8.80121e-19)
(2.40321 -0.0232001 0)
(2.4212 -0.0230391 0)
(2.43926 -0.0228787 0)
(2.45739 -0.0227206 -4.53609e-19)
(2.47558 -0.0225659 4.56856e-19)
(2.49385 -0.0224158 0)
(2.5122 -0.0222718 9.2598e-19)
(2.53064 -0.0221347 4.6587e-19)
(2.54917 -0.0220055 -9.382e-19)
(2.5678 -0.0218842 0)
(2.58653 -0.021769 0)
(2.60537 -0.0216571 -9.55342e-19)
(2.62432 -0.0215443 -4.80537e-19)
(2.64338 -0.0214232 0)
(2.66256 -0.0212832 0)
(2.68187 -0.0211203 0)
(2.7013 -0.0210348 0)
(2.72072 -0.0209914 -9.83003e-19)
(2.74011 -0.0208423 0)
(2.75946 -0.0205611 0)
(2.77866 -0.0201227 0)
(2.79758 -0.0194843 0)
(2.81601 -0.0185741 0)
(2.83372 -0.0172773 0)
(2.85034 -0.0154148 -9.91398e-19)
(2.86538 -0.0127025 0)
(2.87807 -0.00867947 0)
(2.88717 -0.00240571 -2.00059e-18)
(2.89091 0.00810766 1.00354e-18)
(2.88957 0.0270687 -1.01075e-18)
(2.86916 0.0637903 1.02182e-18)
(-0.114074 0.704539 0)
(-0.215724 0.846371 4.13125e-20)
(-0.345849 0.923244 0)
(-0.481779 0.975408 1.22725e-20)
(-0.614584 1.00982 0)
(-0.745821 1.03048 0)
(-0.876352 1.04044 -1.20553e-20)
(-1.00619 1.04204 0)
(-1.13516 1.03707 0)
(-1.26304 1.02691 0)
(-1.38964 1.01267 0)
(-1.51475 0.99523 0)
(-1.63822 0.975333 4.31752e-20)
(-1.75989 0.95358 2.26449e-20)
(-1.87965 0.930473 -2.30782e-20)
(-1.99741 0.906423 0)
(-2.1131 0.881768 0)
(-2.22666 0.85678 0)
(-2.33805 0.831674 0)
(-2.44724 0.806614 0)
(-2.55419 0.781724 2.61888e-20)
(-2.65889 0.757089 2.67296e-20)
(-2.76131 0.732765 -2.72642e-20)
(-2.86144 0.708777 2.7789e-20)
(-2.95924 0.685128 0)
(-3.05471 0.661802 0)
(-3.14779 0.638763 2.86983e-20)
(-3.23846 0.615961 0)
(-3.32667 0.593331 0)
(-3.41235 0.570795 3.00378e-20)
(-3.49543 0.548264 3.09162e-20)
(-3.57585 0.525638 3.12477e-20)
(-3.65348 0.502805 0)
(-3.72822 0.479643 0)
(-3.79993 0.456017 -3.19963e-20)
(-3.86844 0.431784 0)
(-3.93358 0.406787 0)
(-3.99513 0.38086 3.17894e-20)
(-4.05284 0.353824 -3.2801e-20)
(-4.10645 0.325494 3.27348e-20)
(-4.15563 0.295675 0)
(-4.20003 0.264168 0)
(-4.23926 0.230775 6.29968e-20)
(-4.27286 0.1953 0)
(-4.30035 0.157564 6.12593e-20)
(-4.32121 0.117403 8.94764e-20)
(-4.33489 0.0746867 -8.74808e-20)
(-4.34079 0.0293242 5.73399e-20)
(-4.33807 -0.0187046 0)
(-4.32626 -0.0692956 0)
(-4.30465 -0.122233 5.09522e-20)
(-4.27257 -0.177192 2.32895e-20)
(-4.22942 -0.23375 0)
(-4.1747 -0.291379 0)
(-4.10796 -0.349459 1.88378e-20)
(-4.02893 -0.407288 3.62803e-20)
(-3.93747 -0.464103 0)
(-3.83364 -0.5191 -2.71549e-20)
(-3.71769 -0.571468 2.52195e-20)
(-3.59008 -0.620419 -2.11934e-20)
(-3.45148 -0.665224 0)
(-3.30277 -0.705248 0)
(-3.14496 -0.739973 0)
(-2.97924 -0.769017 0)
(-2.80685 -0.792137 0)
(-2.62911 -0.809235 6.84453e-21)
(-2.44737 -0.820344 0)
(-2.26296 -0.825622 0)
(-2.07716 -0.825336 0)
(-1.8912 -0.819845 4.77404e-20)
(-1.70621 -0.80958 2.88903e-20)
(-1.52321 -0.79503 3.30988e-20)
(-1.34312 -0.776729 -7.3089e-20)
(-1.16673 -0.755214 3.99362e-20)
(-0.994707 -0.731027 -4.52207e-20)
(-0.827601 -0.704707 0)
(-0.665846 -0.67675 5.29348e-20)
(-0.509768 -0.647661 0)
(-0.359645 -0.617948 0)
(-0.215543 -0.588033 0)