/*--------------------------------*- C++ -*----------------------------------*\
| =========                 |                                                 |
| \\      /  F ield         | OpenFOAM: The Open Source CFD Toolbox           |
|  \\    /   O peration     | Version:  dev                                   |
|   \\  /    A nd           | Web:      www.OpenFOAM.org                      |
|    \\/     M anipulation  |                                                 |
\*---------------------------------------------------------------------------*/
FoamFile
{
    version     2.0;
    format      ascii;
    class       volScalarField;
    location    "0";
    object      epsilon;
}
// * * * * * * * * * * * * * * * * * * * * * * * * * * * * * * * * * * * * * //

dimensions      [0 2 -3 0 0 0 0];

internalField   nonuniform List<scalar> 
12225
(
37429.9
36320.4
36320.4
36320.4
36320.4
36320.4
36320.4
36320.4
36320.4
36320.4
36320.4
36320.4
36320.4
36320.4
36320.4
36320.4
36320.4
36356.1
1342.56
544.283
544.283
544.283
544.283
544.283
544.283
544.283
544.283
544.283
544.283
544.283
544.283
544.283
544.283
544.283
544.283
563.412
1297.78
291.948
291.948
291.948
291.948
291.948
291.948
291.948
291.948
291.948
291.948
291.948
291.948
291.948
291.948
291.948
291.948
304.877
1325.04
218.242
218.242
218.242
218.242
218.242
218.242
218.242
218.242
218.242
218.242
218.242
218.242
218.242
218.242
218.242
218.242
224.153
1258.05
178.54
178.54
178.54
178.54
178.54
178.54
178.54
178.54
178.54
178.54
178.54
178.54
178.54
178.54
178.54
178.54
181.565
1094.14
152.356
152.356
152.356
152.356
152.356
152.356
152.356
152.356
152.356
152.356
152.356
152.356
152.356
152.356
152.356
152.356
154.049
865.035
135.522
135.522
135.522
135.522
135.522
135.522
135.522
135.522
135.522
135.522
135.522
135.522
135.522
135.522
135.522
135.522
136.543
639.644
121.221
121.221
121.221
121.221
121.221
121.221
121.221
121.221
121.221
121.221
121.221
121.221
121.221
121.221
121.221
121.221
121.913
447.635
109.569
109.569
109.569
109.569
109.569
109.569
109.569
109.569
109.569
109.569
109.569
109.569
109.569
109.569
109.569
109.569
110.075
275.879
101.153
101.153
101.153
101.153
101.153
101.153
101.153
101.153
101.153
101.153
101.153
101.153
101.153
101.153
101.153
101.153
101.526
147.799
93.2857
93.2857
93.2857
93.2857
93.2857
93.2857
93.2857
93.2857
93.2857
93.2857
93.2857
93.2857
93.2857
93.2857
93.2857
93.2857
93.56
19.3313
18.6883
18.6883
18.6883
18.6883
18.6883
18.6883
18.6883
18.6883
18.6883
18.6883
18.6883
18.6883
18.6883
18.6883
18.6883
18.6883
18.8095
0.0313675
0.0313675
0.0313675
0.0313675
0.0313675
0.0313675
0.0313675
0.0313675
0.0313675
0.0313675
0.0313675
0.0313675
0.0313675
0.0313675
0.0313675
0.0313675
0.0313675
0.0313675
0
0
0
0
0
0
0
0
0
0
0
0
0
0
0
0
0
0
0
0
0
0
0
0
0
0
0
0
0
0
0
0
0
0
0
0
0
0
0
0
0
0
0
0
0
0
0
0
0
0
0
0
0
0
1.55294e-41
0
0
0
0
0
0
0
0
0
0
0
0
0
0
0
0
0
0
0
0
0
0
0
0
0
0
0
0
0
0
0
0
0
0
0
0
0
0
0
0
0
0
0
0
0
0
0
0
0
0
0
0
0
0
0
0
0
0
0
0
0
0
0
0
0
0
0
0
0
0
0
0
0
0
0
0
0
0
0
0
0
0
0
0
0
0
0
0
0
4.57669
4.57669
4.57669
4.57669
4.57669
4.57669
4.57669
4.57669
4.57669
4.57669
4.57669
4.57669
4.57669
4.57669
4.57669
4.57669
4.57669
4.57669
98.1386
62.7358
62.7358
62.7358
62.7358
62.7358
62.7358
62.7358
62.7358
62.7358
62.7358
62.7358
62.7358
62.7358
62.7358
62.7358
62.7358
62.7362
325.279
105.629
105.629
105.629
105.629
105.629
105.629
105.629
105.629
105.629
105.629
105.629
105.629
105.629
105.629
105.629
105.629
105.629
631.738
121.512
121.512
121.512
121.512
121.512
121.512
121.512
121.512
121.512
121.512
121.512
121.512
121.512
121.512
121.512
121.512
121.513
967.6
143.243
143.243
143.243
143.243
143.243
143.243
143.243
143.243
143.243
143.243
143.243
143.243
143.243
143.243
143.243
143.243
143.243
1232.73
176.106
176.106
176.106
176.106
176.106
176.106
176.106
176.106
176.106
176.106
176.106
176.106
176.106
176.106
176.106
176.106
176.106
1354.05
236.886
236.886
236.886
236.886
236.886
236.886
236.886
236.886
236.886
236.886
236.886
236.886
236.886
236.886
236.886
236.886
236.886
1419.44
443.508
443.508
443.508
443.508
443.508
443.508
443.508
443.508
443.508
443.508
443.508
443.508
443.508
443.508
443.508
443.508
443.508
31097.4
29678.7
29678.7
29678.7
29678.7
29678.7
29678.7
29678.7
29678.7
29678.7
29678.7
29678.7
29678.7
29678.7
29678.7
29678.7
29678.7
29678.7
47306.7
15089.9
16549.9
17510.2
17514.7
17519.3
17523.9
17528.6
17533.3
17538
17542.8
17547.6
17552.4
17557.3
17562.3
17567.2
17572.3
17577.3
17582.4
17587.6
17592.8
17598
17603.3
17608.6
17614
17619.4
17624.9
17630.4
17636
17641.6
17647.2
17652.9
17658.7
17664.5
17670.4
17676.3
17682.2
17688.2
17694.3
17700.4
17706.6
17712.8
17719.1
17725.4
17731.8
17738.3
17744.8
17751.3
17758
17764.6
17771.4
17778.2
17785
17791.9
17798.9
17806
17813.1
17820.2
17827.5
17834.8
17842.1
17849.5
17857
17864.6
17872.2
17879.9
17887.7
17895.5
17903.4
17911.4
17919.4
17927.5
17935.7
17944
17952.3
17960.7
17969.2
17977.8
17986.5
17995.2
18004
18012.9
18021.8
18030.9
18040
18049.2
18058.5
18067.9
18077.4
18087
18096.6
18106.3
18116.2
18126.1
18136.1
18146.2
18156.4
18166.7
18177.1
18187.6
18198.2
18208.9
18219.7
18230.5
18241.5
18252.6
18263.8
18275.1
18286.6
18298.1
18309.7
18321.5
18333.3
18345.3
18357.4
18369.6
18381.9
18394.3
18406.9
18419.6
18432.4
18445.3
18458.3
18471.5
18484.8
18498.3
18511.8
18525.5
18539.4
18553.4
18567.5
18581.7
18596.1
18610.6
18625.3
18640.2
18655.1
18670.3
18685.5
18701
18716.5
18732.3
18748.2
18764.3
18780.5
18796.9
18813.4
18830.2
18847.1
18864.1
18881.4
18898.8
18916.4
18934.2
18952.2
18970.4
18988.7
19007.3
19026
19044.9
19064.1
19083.4
19103
19122.7
19142.7
19162.8
19183.2
19203.9
19224.7
19245.7
19267
19288.5
19310.3
19332.3
19354.5
19377
19399.7
19422.7
19445.9
19469.4
41660.9
640.313
311.73
142.89
188.083
266.562
266.632
266.703
266.774
266.846
266.919
266.992
267.066
267.14
267.215
267.291
267.367
267.445
267.522
267.601
267.68
267.759
267.84
267.921
268.003
268.085
268.168
268.252
268.337
268.422
268.508
268.595
268.683
268.771
268.86
268.95
269.041
269.132
269.225
269.318
269.412
269.506
269.602
269.698
269.796
269.894
269.993
270.092
270.193
270.295
270.397
270.501
270.605
270.71
270.816
270.923
271.032
271.141
271.251
271.362
271.473
271.586
271.7
271.815
271.931
272.048
272.167
272.286
272.406
272.527
272.65
272.773
272.898
273.024
273.15
273.279
273.408
273.538
273.67
273.802
273.936
274.072
274.208
274.346
274.485
274.625
274.767
274.909
275.053
275.199
275.346
275.494
275.644
275.794
275.947
276.101
276.256
276.412
276.571
276.73
276.891
277.054
277.218
277.384
277.551
277.72
277.89
278.062
278.236
278.411
278.588
278.767
278.947
279.129
279.313
279.499
279.686
279.876
280.067
280.26
280.454
280.651
280.85
281.05
281.253
281.457
281.664
281.872
282.083
282.295
282.51
282.727
282.946
283.167
283.39
283.616
283.844
284.074
284.306
284.541
284.778
285.018
285.26
285.504
285.751
286.001
286.253
286.507
286.764
287.024
287.287
287.552
287.82
288.09
288.364
288.64
288.919
289.202
289.487
289.775
290.066
290.36
290.658
290.958
291.262
291.569
291.879
292.193
292.51
292.83
293.154
293.481
293.812
294.147
294.485
294.827
295.173
295.522
295.876
296.234
41660.9
633.003
346.646
268.098
193.061
70.3956
90.2899
146.316
146.355
146.394
146.434
146.474
146.515
146.556
146.597
146.638
146.68
146.723
146.765
146.808
146.852
146.895
146.939
146.984
147.029
147.074
147.12
147.166
147.212
147.259
147.306
147.354
147.402
147.45
147.499
147.549
147.598
147.649
147.699
147.75
147.802
147.854
147.906
147.959
148.012
148.066
148.121
148.175
148.231
148.286
148.343
148.399
148.456
148.514
148.572
148.631
148.69
148.75
148.811
148.872
148.933
148.995
149.057
149.12
149.184
149.248
149.313
149.379
149.444
149.511
149.578
149.646
149.714
149.783
149.853
149.923
149.994
150.066
150.138
150.211
150.284
150.358
150.433
150.509
150.585
150.662
150.74
150.818
150.897
150.977
151.057
151.139
151.221
151.303
151.387
151.471
151.557
151.642
151.729
151.817
151.905
151.994
152.084
152.175
152.267
152.36
152.453
152.548
152.643
152.739
152.836
152.934
153.033
153.133
153.234
153.336
153.439
153.542
153.647
153.753
153.86
153.968
154.077
154.187
154.298
154.41
154.523
154.638
154.753
154.87
154.988
155.107
155.227
155.348
155.471
155.594
155.719
155.846
155.973
156.102
156.232
156.364
156.496
156.63
156.766
156.903
157.041
157.181
157.322
157.464
157.608
157.754
157.901
158.049
158.199
158.351
158.504
158.659
158.815
158.973
159.133
159.294
159.458
159.622
159.789
159.957
160.128
160.3
160.474
160.649
160.827
161.007
161.188
161.372
161.557
161.745
161.935
162.126
162.32
162.518
41660.9
633.01
346.648
266.218
223.919
197.412
154.263
51.9843
65.4795
112.68
112.71
112.741
112.773
112.804
112.836
112.868
112.9
112.932
112.965
112.998
113.032
113.065
113.099
113.133
113.168
113.203
113.238
113.273
113.309
113.345
113.382
113.418
113.455
113.493
113.53
113.568
113.606
113.645
113.684
113.723
113.763
113.803
113.843
113.884
113.925
113.967
114.008
114.051
114.093
114.136
114.179
114.223
114.267
114.311
114.356
114.401
114.447
114.493
114.54
114.586
114.634
114.681
114.729
114.778
114.827
114.876
114.926
114.977
115.027
115.079
115.13
115.182
115.235
115.288
115.342
115.396
115.45
115.506
115.561
115.617
115.674
115.731
115.788
115.847
115.905
115.964
116.024
116.085
116.145
116.207
116.269
116.331
116.395
116.458
116.523
116.588
116.653
116.719
116.786
116.853
116.921
116.99
117.059
117.129
117.2
117.271
117.343
117.416
117.489
117.563
117.638
117.713
117.79
117.867
117.944
118.023
118.102
118.182
118.262
118.344
118.426
118.509
118.593
118.678
118.763
118.849
118.937
119.025
119.114
119.203
119.294
119.386
119.478
119.571
119.666
119.761
119.857
119.954
120.053
120.152
120.252
120.353
120.455
120.558
120.663
120.768
120.874
120.982
121.09
121.2
121.311
121.423
121.536
121.65
121.766
121.883
122
122.12
122.24
122.362
122.485
122.609
122.734
122.861
122.99
123.119
123.25
123.383
123.517
123.652
123.789
123.927
124.067
124.208
124.351
124.495
124.641
124.789
124.938
125.091
41660.9
633.019
346.651
266.22
223.921
196.55
176.894
162.409
129.271
42.1967
54.4708
56.985
57.223
57.4636
57.707
57.9532
58.2022
58.454
58.7087
58.9664
59.227
59.4906
59.7572
60.027
60.2999
60.5759
60.8552
61.1378
61.4236
61.7129
62.0055
62.3016
62.6013
62.9044
63.2112
63.5217
63.8359
64.1538
64.4756
64.8013
65.1309
65.4645
65.8021
66.1439
66.4899
66.84
67.1945
67.5534
67.9167
68.2845
68.6569
69.0339
69.4156
69.8022
70.1935
70.5898
70.9911
71.3975
71.8091
72.2258
72.648
73.0755
73.5085
73.9471
74.3914
74.8414
75.2973
75.7591
76.2269
76.7009
77.1811
77.6677
78.1607
78.6602
79.1664
79.6793
80.1991
80.7259
81.2598
81.8009
82.3493
82.9052
83.4687
84.0398
84.6188
85.2058
85.8009
86.4042
87.016
87.6362
88.2651
88.9029
89.5496
90.2054
90.8706
91.5452
92.2294
92.9234
93.6274
94.3415
95.0659
95.8009
96.5465
97.303
98.0706
98.8494
98.9218
98.983
99.0449
99.1073
99.1703
99.2339
99.2981
99.363
99.4284
99.4945
99.5612
99.6286
99.6966
99.7653
99.8346
99.9046
99.9753
100.047
100.119
100.192
100.265
100.339
100.414
100.49
100.566
100.644
100.721
100.8
100.88
100.96
101.041
101.123
101.206
101.289
101.374
101.459
101.545
101.632
101.72
101.809
101.899
101.989
102.081
102.173
102.267
102.361
102.456
102.553
102.65
102.749
102.848
102.948
103.05
103.152
103.256
103.361
103.467
103.574
103.682
103.791
103.902
104.013
104.126
104.24
104.355
104.472
104.59
104.709
104.829
104.951
105.074
105.198
105.324
105.454
41661
633.031
346.655
266.223
223.924
196.552
176.896
161.866
149.879
140.51
30.4388
3.22313
3.22107
3.26129
3.3022
3.34384
3.38621
3.42934
3.47322
3.51789
3.56336
3.60964
3.65675
3.70471
3.75354
3.80326
3.85387
3.90542
3.9579
4.01135
4.06578
4.12122
4.17769
4.2352
4.29379
4.35347
4.41427
4.47622
4.53934
4.60365
4.66918
4.73596
4.80401
4.87338
4.94407
5.01613
5.08958
5.16446
5.2408
5.31863
5.39798
5.47889
5.5614
5.64555
5.73136
5.81888
5.90814
5.9992
6.09209
6.18685
6.28352
6.38216
6.4828
6.58551
6.69031
6.79727
6.90644
7.01786
7.1316
7.2477
7.36623
7.48724
7.6108
7.73696
7.8658
7.99737
8.13174
8.26898
8.40917
8.55237
8.69866
8.84812
9.00083
9.15686
9.31631
9.47925
9.64579
9.816
9.98998
10.1678
10.3496
10.5355
10.7256
10.92
11.1187
11.3219
11.5298
11.7424
11.9599
12.1824
12.4101
12.643
12.8813
13.1252
13.3748
13.6296
13.8623
14.0988
14.3403
14.5868
14.8384
15.0954
15.3578
15.6258
15.8994
16.1789
16.4644
16.756
17.0538
17.3581
17.669
17.9866
18.3111
18.6426
18.9814
19.3277
19.6816
20.0432
20.4129
20.7907
21.177
21.5719
21.9756
22.3883
22.8104
23.242
23.6833
24.1346
24.5963
25.0684
25.5514
26.0454
26.5509
27.068
27.5971
28.1385
28.6925
29.2594
29.8396
30.4335
31.0414
31.6636
32.3007
32.9528
33.6206
34.3043
35.0045
35.7215
36.4558
37.2079
37.9784
38.7676
39.5761
40.4045
41.2532
42.1229
43.0142
43.9276
44.8638
45.8233
46.807
47.8154
48.8493
49.9094
50.9964
52.1111
53.2544
54.427
55.6298
56.8683
41661
633.045
346.659
266.227
223.927
196.554
176.898
161.868
149.88
140.024
21.5195
0.00215694
2.43154e-43
2.10003e-42
1.44651e-40
6.56933e-42
1.21399e-40
2.36206e-41
7.91283e-45
2.04683e-40
5.89359e-42
2.76442e-42
3.61194e-40
3.07157e-41
9.2069e-43
1.01116e-40
9.33868e-42
5.60423e-41
6.6519e-40
1.1594e-41
2.56979e-40
1.90101e-40
4.54802e-42
1.06374e-41
1.66679e-43
5.8111e-42
4.17348e-42
3.08794e-40
5.13465e-45
1.15593e-41
3.59185e-41
6.948e-42
4.92499e-40
1.62813e-40
1.31963e-40
1.95016e-41
2.27998e-41
1.58137e-42
6.17448e-41
1.56788e-40
3.95049e-41
7.24157e-42
1.11407e-41
3.72994e-45
1.33373e-41
4.69951e-41
8.34277e-43
2.66886e-42
3.28881e-41
4.35862e-43
1.7739e-42
2.67447e-41
1.36065e-41
3.20544e-42
1.74108e-40
2.46728e-40
3.80688e-40
1.50018e-40
4.04939e-41
3.74557e-43
6.21751e-43
1.27329e-40
1.85389e-43
2.61013e-44
1.01158e-40
1.09686e-40
4.33386e-41
4.74192e-41
1.41398e-43
1.57999e-41
7.47988e-41
1.51605e-41
6.07364e-42
7.27727e-42
2.74472e-43
1.92711e-41
1.49913e-44
4.2214e-42
2.02103e-41
6.80289e-41
1.38127e-44
1.79476e-42
6.39886e-41
1.7074e-40
1.54865e-40
1.57116e-41
1.13216e-43
8.25469e-43
1.8339e-43
7.57434e-42
2.09766e-41
2.90337e-41
3.5101e-41
4.5503e-43
1.62518e-43
3.30495e-41
2.08212e-06
1.73505e-05
6.00083e-05
0.00014518
0.00028896
0.000508456
0.000821844
0.00124842
0.00180865
0.00252425
0.00341819
0.00451485
0.00583999
0.00742089
0.00928637
0.0114669
0.0139948
0.0169039
0.0202302
0.0240115
0.028288
0.0331016
0.0384969
0.0445208
0.0512225
0.0586542
0.0668706
0.0759294
0.0858914
0.0968205
0.108784
0.121853
0.136101
0.151607
0.168454
0.186728
0.20652
0.227926
0.251046
0.275987
0.302859
0.33178
0.362873
0.396265
0.432093
0.470499
0.511633
0.555652
0.60272
0.653012
0.706709
0.764002
0.825091
0.890189
0.959516
1.03331
1.1118
1.19526
1.28395
1.37815
1.47816
1.5843
1.69689
1.81628
1.94281
2.07689
2.2189
2.36926
2.52842
2.69683
2.87497
3.06337
3.26256
3.47309
41661.1
633.061
346.665
266.231
223.93
196.557
176.901
161.871
149.883
140.026
21.5162
0.00214896
7.24361e-42
1.10144e-42
8.68883e-41
3.08119e-41
1.08506e-40
3.01495e-42
2.13419e-43
6.02276e-42
5.21635e-40
1.74245e-41
2.5958e-41
1.12926e-39
3.65637e-41
2.16367e-40
1.56382e-41
2.37584e-41
6.75591e-42
8.98989e-42
5.64734e-44
1.13781e-41
2.57627e-41
4.99713e-41
4.47615e-44
4.35373e-40
4.88396e-40
2.02568e-40
6.84043e-45
1.4542e-40
3.91128e-40
1.13288e-41
8.55898e-42
6.12037e-43
1.6858e-42
4.92009e-40
8.57876e-50
5.62012e-43
4.40145e-42
1.06373e-40
2.7396e-43
2.68206e-40
9.08015e-43
3.95824e-42
7.8881e-43
7.72272e-43
2.8012e-44
2.66886e-42
4.99577e-41
1.05662e-40
2.73136e-41
2.75391e-41
1.97421e-40
1.66544e-42
1.08027e-41
3.07373e-42
2.83946e-45
1.22518e-41
1.49979e-42
1.97359e-43
1.15073e-41
2.71134e-42
6.62192e-41
1.96112e-44
7.0132e-41
1.99587e-41
5.48804e-43
1.40503e-41
4.64473e-41
1.68507e-42
1.68531e-40
7.75006e-43
1.07152e-41
1.24125e-41
2.74239e-42
1.05442e-42
3.57186e-42
1.17472e-43
9.80331e-42
2.47522e-42
3.62909e-41
3.18312e-41
9.1374e-43
2.72416e-41
3.80066e-41
4.21148e-44
1.79689e-47
2.10505e-43
1.46712e-45
2.74137e-42
1.40911e-42
1.46553e-42
7.13e-42
4.84473e-42
1.62546e-43
1.89712e-41
1.56137e-43
5.20549e-42
1.57757e-41
4.39167e-43
2.65269e-42
1.48615e-41
1.65012e-41
1.37475e-40
1.17827e-40
8.86855e-42
4.51766e-42
6.92128e-41
1.17272e-40
1.29595e-40
2.39015e-40
9.35747e-42
4.96418e-42
5.71505e-44
7.00619e-45
3.01646e-42
6.3432e-42
1.18888e-40
4.03917e-41
1.04499e-41
5.69416e-42
6.12696e-45
1.38091e-41
1.59037e-43
9.69533e-41
9.9652e-44
1.22119e-40
2.55012e-43
1.27662e-42
5.11568e-43
2.11614e-44
8.88853e-43
1.07291e-42
1.16198e-42
8.40956e-44
2.58937e-42
2.95018e-46
1.68904e-42
6.24555e-43
1.92342e-41
3.42467e-44
4.20283e-45
7.24667e-43
1.92112e-41
6.36657e-41
9.72624e-41
2.11533e-42
1.4063e-42
1.19946e-41
3.53714e-43
1.66753e-43
1.00793e-42
2.26487e-46
1.01017e-41
9.55496e-43
7.16779e-41
2.56645e-44
2.01735e-43
9.24848e-42
1.11163e-41
3.76782e-42
4.06356e-44
3.19504e-43
1.1631e-44
6.02893e-43
6.90322e-42
6.47775e-46
5.79783e-46
2.03058e-42
0
41661.2
633.079
346.671
266.235
223.934
196.561
176.904
161.874
149.885
140.028
21.5123
0.00213986
7.01243e-42
2.02662e-41
6.89748e-44
1.53192e-41
3.479e-40
8.07984e-45
7.90415e-45
6.02278e-42
1.40842e-41
8.23475e-48
4.26625e-40
2.53849e-42
1.65416e-42
2.99603e-41
2.32421e-40
9.13922e-42
2.02797e-40
7.00265e-41
4.5213e-41
8.39105e-43
1.40532e-41
1.5436e-43
8.07272e-42
1.24296e-42
2.36411e-41
3.26793e-41
4.35916e-41
2.77127e-42
1.17247e-42
1.30029e-43
1.51574e-40
6.4875e-43
7.57742e-41
4.33291e-41
4.61259e-44
1.14407e-43
8.91107e-41
3.00841e-43
2.54399e-43
1.36662e-41
2.37334e-41
1.96494e-41
1.36302e-42
3.79417e-42
2.78318e-40
9.23973e-40
5.6301e-41
3.48689e-42
1.20084e-42
1.38956e-41
3.9524e-41
8.1555e-44
1.89299e-43
1.80433e-41
2.41612e-40
1.42456e-45
3.82482e-43
6.12675e-42
2.76848e-42
6.89923e-44
2.00237e-44
5.85427e-41
8.76666e-42
3.30562e-43
4.18131e-42
1.15676e-45
2.5501e-41
2.17347e-45
4.45657e-41
9.15915e-42
5.82394e-42
3.45362e-45
1.68554e-40
3.64594e-42
1.98814e-42
1.17496e-43
1.9083e-42
9.60479e-42
4.94577e-41
1.16562e-40
3.81131e-42
3.05603e-41
2.03859e-41
8.59608e-43
1.62153e-42
9.63377e-42
1.0712e-41
5.25113e-42
1.19624e-41
4.03487e-41
1.43633e-42
9.98804e-42
1.10378e-41
2.75292e-43
9.40522e-42
2.33443e-42
1.68756e-43
7.32917e-42
1.51597e-41
2.70087e-41
2.33045e-41
1.09515e-41
1.7459e-41
8.13448e-43
5.27992e-46
6.25594e-42
1.81182e-41
3.04679e-41
1.50755e-40
3.91309e-41
7.73033e-42
3.93887e-42
4.77459e-42
1.07385e-43
1.41338e-41
2.46752e-42
3.78143e-41
3.50677e-42
8.77384e-43
2.51115e-44
2.80124e-43
3.87378e-46
1.37726e-42
5.51988e-43
3.95852e-46
5.79272e-42
6.74724e-42
3.34292e-42
9.07071e-44
3.15297e-41
8.73032e-41
6.85572e-43
3.0622e-43
7.7161e-42
1.21145e-41
8.21671e-42
8.06566e-42
1.78605e-44
2.66675e-41
7.63192e-42
9.92862e-42
2.52398e-41
2.4783e-41
6.4186e-42
6.30311e-42
1.23451e-43
1.51812e-44
1.14263e-42
6.26907e-43
7.57274e-46
3.45898e-45
5.94118e-43
1.57599e-41
1.67189e-42
9.18562e-42
2.01735e-43
3.90229e-42
2.73903e-41
1.91425e-46
7.07343e-42
6.24031e-46
3.57708e-42
9.14612e-44
3.85529e-42
9.85186e-42
8.68924e-44
1.67592e-43
4.30079e-41
41661.2
633.1
346.677
266.241
223.938
196.564
176.907
161.877
149.888
140.031
21.508
0.00212966
7.01243e-42
7.04969e-44
5.94236e-43
2.46697e-41
1.15977e-41
2.18102e-43
8.85108e-40
2.48722e-40
4.1731e-42
3.93603e-42
6.15302e-41
3.73633e-41
5.89243e-41
9.55055e-43
6.69873e-41
2.37586e-41
0
1.78395e-41
1.10723e-41
3.29045e-42
2.13315e-41
1.5436e-43
3.08479e-42
5.81114e-42
5.68768e-42
4.45359e-41
1.50025e-40
3.66957e-41
3.06459e-41
2.81268e-40
3.01663e-40
1.62813e-40
1.68591e-42
1.05369e-42
2.27999e-41
3.59689e-41
3.12294e-41
2.139e-41
5.22482e-41
5.76543e-42
3.04786e-47
3.75893e-41
1.19662e-43
1.52006e-41
6.73813e-41
1.02341e-41
3.87369e-41
9.41461e-41
2.34906e-41
8.25822e-43
2.40205e-42
1.93316e-43
1.61253e-41
1.58932e-40
4.75861e-41
3.20621e-41
1.43296e-41
2.66384e-45
2.07419e-40
9.33143e-42
7.47179e-42
4.67292e-42
2.70044e-42
8.7756e-43
8.59463e-43
5.42676e-42
3.10375e-42
7.90348e-42
9.01194e-42
3.29261e-49
3.2254e-49
1.04833e-45
6.69582e-43
8.12999e-42
2.34215e-43
1.84344e-45
1.15082e-43
4.12139e-41
1.11074e-41
4.94149e-41
2.87224e-45
4.7442e-41
6.03528e-41
2.04927e-41
3.64145e-43
0
1.1737e-44
2.64548e-41
2.55862e-42
3.29155e-43
1.52118e-41
4.18572e-41
1.8284e-43
6.71328e-42
1.44187e-41
5.40076e-42
3.78714e-41
0
4.45353e-41
2.37713e-41
3.17602e-41
5.41574e-41
8.52333e-45
1.33732e-40
1.43897e-42
3.81276e-42
6.30208e-41
1.23615e-40
2.82746e-42
1.04443e-42
4.99642e-41
1.00369e-41
6.59447e-42
1.08963e-48
6.76917e-45
3.72814e-41
1.93613e-41
1.21264e-41
4.10308e-46
5.9572e-43
4.67527e-42
2.19871e-42
2.69618e-43
1.50046e-40
1.11948e-40
1.17901e-45
5.70304e-44
1.72219e-43
1.69073e-43
2.22198e-42
2.5432e-45
6.85572e-43
7.08872e-42
8.25414e-44
1.37644e-41
2.14552e-41
3.45897e-42
1.41361e-41
4.16679e-43
1.96154e-43
1.18152e-41
1.99056e-41
2.4783e-41
3.45644e-42
6.74701e-44
1.65431e-42
5.11877e-44
1.43334e-41
2.28433e-43
2.98646e-43
3.18934e-41
1.5784e-43
1.07776e-41
8.21345e-42
4.06973e-48
9.20987e-41
8.87474e-41
9.57372e-43
8.20735e-42
1.2123e-44
6.24031e-43
3.19416e-42
1.14326e-44
3.03435e-43
4.89783e-42
1.25875e-42
4.07003e-42
0
41661.3
633.123
346.685
266.246
223.943
196.569
176.911
161.88
149.892
140.034
21.5032
0.00211836
9.07541e-41
7.48067e-41
2.13625e-50
1.18525e-41
6.02729e-41
1.0097e-39
9.88018e-43
8.92808e-41
6.05654e-44
4.08364e-42
3.81808e-41
5.67397e-44
6.94832e-45
5.11425e-41
7.67286e-41
9.63768e-42
2.2357e-41
5.75352e-40
2.27592e-42
3.71759e-41
3.07686e-41
2.08776e-41
4.3566e-42
3.41122e-41
1.60038e-41
9.3117e-40
2.55891e-40
1.64687e-43
7.14633e-41
2.24663e-40
1.54452e-43
1.94449e-40
1.05657e-40
2.75418e-41
7.85891e-42
1.14393e-43
1.54821e-42
9.33863e-42
3.17999e-44
1.81562e-40
6.58338e-45
8.8905e-43
7.88786e-43
8.60262e-42
8.42267e-42
1.25177e-41
8.70305e-41
2.99416e-40
4.22887e-41
3.17474e-41
1.97421e-40
6.94736e-42
2.03855e-40
7.66494e-41
3.9849e-42
6.38835e-42
3.40071e-43
5.07894e-42
2.62028e-45
9.33156e-42
9.34048e-43
1.25486e-42
3.07547e-41
2.64242e-41
1.68126e-41
1.64676e-41
1.41388e-43
1.19313e-42
1.65058e-42
2.91717e-42
1.10896e-41
1.04833e-45
2.74506e-43
2.68667e-42
5.05816e-44
2.29421e-43
1.12016e-41
1.32651e-41
5.65856e-44
9.32497e-43
7.04539e-42
1.63635e-41
1.78825e-41
1.21401e-42
9.78023e-44
3.44329e-42
6.47149e-42
2.02004e-42
1.12724e-44
9.77426e-42
5.9699e-42
1.12617e-41
1.8284e-43
1.4323e-41
2.38156e-42
7.62738e-42
1.26205e-40
6.18993e-46
6.13081e-41
2.70087e-41
6.08251e-41
1.20181e-40
6.22321e-41
3.4229e-44
5.58367e-42
8.52559e-42
1.29446e-41
7.5187e-43
4.4176e-41
1.0446e-42
2.38797e-43
4.86941e-42
7.037e-45
1.20741e-42
1.05306e-40
2.14312e-41
4.15086e-43
1.1171e-42
2.96069e-42
2.90458e-42
4.80323e-44
5.89026e-45
3.96372e-41
1.30406e-41
3.5603e-46
9.59989e-44
2.76111e-45
5.57738e-42
3.67e-46
1.09338e-42
3.179e-43
1.53285e-42
8.40267e-43
3.00643e-43
9.95809e-43
7.43449e-42
5.2911e-42
7.662e-43
1.87918e-42
3.95567e-42
8.91744e-43
1.47986e-41
5.77923e-41
3.12868e-44
2.52295e-46
6.19077e-42
4.92469e-42
7.62094e-42
3.81436e-44
6.05819e-42
7.22225e-42
5.96152e-44
6.97066e-42
2.88883e-42
1.19781e-42
1.39038e-41
4.35209e-42
3.04361e-45
4.13478e-44
1.09753e-42
3.44142e-42
1.1631e-44
2.24276e-44
7.40809e-44
4.75305e-44
5.72777e-46
7.03931e-44
0
41661.4
633.148
346.693
266.253
223.949
196.573
176.916
161.884
149.895
140.038
21.4979
0.00210598
5.76348e-43
6.86141e-42
0
6.5693e-42
2.41195e-40
3.01495e-42
6.15487e-42
5.64727e-41
6.05654e-44
2.21152e-41
2.16414e-41
1.53197e-42
6.80212e-41
2.99604e-41
9.33876e-42
2.37585e-41
4.71662e-43
7.98299e-41
6.0976e-42
5.43806e-40
1.67234e-41
9.59046e-41
8.28894e-42
7.19768e-41
2.95518e-42
1.00022e-41
2.62894e-42
2.57323e-42
8.25346e-41
8.07876e-41
2.34902e-40
3.36878e-41
9.49569e-41
2.41032e-41
1.29232e-41
7.32114e-45
7.80621e-41
3.16173e-42
6.66892e-41
5.76543e-42
6.39184e-41
3.95824e-42
2.7057e-43
2.78407e-42
3.52774e-41
7.40404e-43
1.41427e-40
1.44934e-41
3.41434e-42
4.66741e-42
2.74378e-47
4.47524e-42
4.15565e-42
3.4076e-40
2.41611e-40
1.46324e-41
3.57538e-41
1.45229e-41
1.15073e-41
3.58966e-42
3.51897e-43
7.31783e-42
1.75257e-41
2.36128e-45
8.59536e-43
1.91477e-41
2.48514e-42
1.34804e-41
1.25738e-40
1.81514e-41
1.12156e-42
7.43774e-43
9.93259e-42
4.39812e-42
1.45879e-42
1.34007e-41
4.85503e-44
3.80584e-43
1.34417e-42
2.37616e-42
1.40685e-41
8.90969e-41
4.6487e-41
1.75228e-41
2.4226e-49
7.87667e-46
2.06322e-43
3.02286e-41
2.364e-41
1.17239e-41
1.52248e-42
4.95281e-43
1.01262e-42
9.92369e-43
1.2491e-42
6.10183e-41
2.63465e-44
7.52966e-44
1.2755e-40
4.44388e-41
7.52852e-41
3.56089e-41
2.54511e-41
1.46877e-43
1.29928e-48
1.01203e-41
3.23217e-44
7.27021e-42
2.38194e-42
7.69584e-41
5.48487e-41
1.11511e-41
6.59447e-42
2.2526e-43
3.1444e-43
7.42975e-41
9.11841e-43
2.06186e-41
1.34777e-42
6.51683e-44
7.56336e-42
2.19871e-42
1.51873e-41
3.19761e-41
9.78383e-44
9.58579e-43
4.28478e-44
5.81238e-43
2.65879e-45
3.74985e-43
6.04357e-41
2.65773e-41
3.0622e-43
7.44704e-49
3.36573e-41
1.65272e-41
5.59562e-42
9.53385e-46
3.43973e-44
1.13698e-43
1.95672e-41
1.32991e-43
6.87455e-45
3.97543e-45
1.0082e-41
1.55374e-44
6.50142e-43
3.69801e-45
1.15717e-41
7.57644e-43
7.80485e-46
2.99368e-42
4.1873e-42
1.5495e-42
1.52124e-41
6.15015e-43
1.46872e-41
2.22226e-41
1.46949e-41
2.8707e-43
4.54919e-43
1.93511e-42
8.02775e-43
5.92647e-43
6.49054e-42
3.7276e-42
1.14483e-42
0
41661.5
633.176
346.702
266.26
223.954
196.579
176.92
161.888
149.899
140.041
21.4922
0.00209253
7.20435e-44
1.15821e-40
0
6.56939e-42
3.18762e-40
1.77989e-39
1.11049e-41
2.72932e-40
1.63482e-42
9.25792e-43
5.45717e-41
4.41826e-41
5.55408e-44
8.49069e-43
4.25414e-40
5.06551e-42
2.04722e-40
4.85162e-42
8.56669e-42
3.48579e-40
6.19812e-42
1.36241e-42
1.6706e-41
1.28102e-40
1.02189e-41
6.24763e-40
6.89162e-40
2.97884e-42
3.83074e-42
3.0818e-43
1.37719e-40
1.06118e-41
2.8474e-40
4.64904e-40
3.37017e-42
1.71688e-42
7.53143e-42
1.18635e-40
8.54024e-41
8.40564e-43
3.81402e-45
5.52611e-42
3.19233e-41
5.29701e-42
1.04526e-41
1.88987e-42
1.05891e-40
4.62007e-43
1.41915e-41
6.06392e-41
4.33804e-43
3.9703e-41
6.51749e-40
3.44949e-40
1.55637e-40
2.22207e-44
3.82715e-43
7.19588e-44
1.3275e-41
2.8741e-42
5.85386e-41
1.90835e-42
2.35237e-41
2.36128e-45
6.87585e-42
1.75626e-42
3.36977e-41
8.0776e-43
1.69762e-44
4.77574e-42
6.07351e-42
6.99754e-42
1.2496e-43
8.43483e-42
1.49872e-44
1.0006e-41
2.52637e-42
5.26066e-42
1.73954e-41
5.54424e-44
4.29762e-41
2.98762e-41
8.67408e-42
1.24724e-44
2.91283e-42
3.23414e-43
2.0612e-42
1.61756e-42
1.85209e-41
5.15608e-43
4.43491e-41
1.33686e-41
7.706e-43
3.34205e-43
1.81453e-41
4.56998e-43
3.24057e-41
1.0411e-42
1.67562e-41
4.76501e-41
9.97512e-42
4.5798e-41
5.66355e-41
3.90022e-43
2.68601e-43
3.74954e-43
6.13445e-42
3.04677e-41
5.16191e-42
7.2301e-43
1.38902e-41
5.56309e-42
8.82578e-42
2.81938e-44
4.5928e-42
5.61199e-41
3.5349e-41
1.1171e-42
2.91182e-43
4.89619e-44
2.80124e-43
4.58668e-42
8.12553e-43
1.85787e-43
2.29425e-44
3.47266e-42
7.53215e-43
3.58161e-42
7.64106e-42
6.37583e-42
1.42805e-42
1.16198e-42
6.72308e-42
1.30023e-44
5.09792e-43
2.89591e-43
7.29896e-42
3.48839e-41
6.02311e-43
3.4908e-42
1.13239e-41
1.78714e-41
1.95455e-41
1.2823e-43
1.96417e-42
1.23663e-43
1.52593e-44
1.04474e-42
2.64439e-43
4.84655e-44
6.02375e-45
3.80609e-42
5.46133e-42
4.58736e-42
2.5669e-41
4.46732e-41
5.0896e-42
5.34806e-43
2.03876e-42
4.14392e-43
8.62734e-42
2.5123e-42
9.80207e-42
5.23127e-42
2.10077e-42
2.1588e-44
3.61513e-44
0
41661.6
633.206
346.712
266.267
223.961
196.584
176.925
161.893
149.903
140.045
21.4859
0.00207802
7.20435e-44
4.04296e-40
1.86238e-42
3.14893e-42
5.2832e-40
8.9332e-40
1.90183e-41
3.96007e-42
1.44306e-41
8.33112e-42
5.79972e-44
2.1178e-41
7.39213e-44
4.95929e-41
2.42769e-41
2.86936e-41
1.90096e-41
8.18944e-41
1.64635e-43
3.81932e-40
4.54802e-42
1.36552e-40
1.63469e-40
6.32096e-41
4.55015e-41
4.08497e-42
2.2649e-41
4.02178e-44
1.7967e-41
1.69105e-41
3.54904e-41
1.10216e-40
1.74401e-40
6.21143e-42
5.15442e-40
9.7445e-42
2.28718e-42
3.24827e-44
5.58457e-42
3.1132e-47
5.64462e-42
1.89796e-41
5.13067e-42
1.26165e-40
6.5884e-41
2.7419e-44
1.6724e-40
6.90821e-41
8.68664e-44
1.38958e-41
1.36064e-41
5.23546e-45
5.63942e-42
6.22307e-41
1.5464e-41
8.93199e-41
3.57536e-41
2.83903e-44
9.73814e-43
3.58966e-42
8.78767e-42
2.46979e-41
6.225e-41
5.61594e-41
5.97182e-41
2.96458e-41
3.10418e-42
3.63054e-41
1.79955e-41
2.72934e-41
1.01367e-40
8.78911e-42
1.21597e-41
2.68878e-43
1.50036e-44
5.48039e-42
3.01689e-41
5.26055e-42
1.2997e-41
3.65308e-43
1.17294e-41
3.87874e-41
3.34516e-41
8.49957e-42
9.05724e-43
1.50874e-41
3.08463e-41
2.64573e-41
4.94832e-42
1.39167e-41
1.01907e-41
6.79168e-43
1.30014e-42
1.01948e-41
6.85404e-41
8.81456e-41
4.23545e-41
3.51334e-42
2.75512e-41
2.48205e-41
5.64022e-42
9.25692e-41
6.81867e-44
1.47259e-43
1.48787e-41
2.71148e-41
3.73546e-41
1.23615e-40
9.4589e-41
3.27649e-41
4.31856e-42
3.33415e-43
1.111e-48
6.08058e-42
5.39163e-47
2.41429e-41
1.77923e-41
2.50074e-43
2.02257e-41
2.68664e-42
2.80124e-43
1.93095e-43
1.01635e-43
1.28495e-45
2.59634e-43
3.07843e-41
8.80004e-42
1.72219e-43
3.3008e-43
5.06134e-45
4.96718e-45
1.33769e-44
3.26137e-42
1.01489e-42
2.95343e-43
1.98691e-42
7.67546e-42
5.19341e-42
4.54285e-42
3.27541e-42
5.80209e-43
1.31355e-41
1.64073e-44
1.72316e-41
5.30326e-44
2.41115e-46
5.20248e-43
5.10962e-43
6.26819e-43
1.63793e-43
1.4106e-44
1.58054e-43
2.12705e-43
2.78142e-43
1.74907e-41
1.47264e-43
9.24927e-42
4.208e-41
1.22512e-44
1.03237e-41
6.64469e-42
1.54809e-41
1.42908e-45
2.13651e-42
2.98524e-43
6.95438e-43
2.60761e-42
0
41661.8
633.238
346.723
266.275
223.968
196.59
176.931
161.898
149.908
140.05
21.4792
0.00206247
9.00544e-45
5.2269e-40
1.2123e-42
4.92778e-40
1.04431e-39
7.86243e-40
3.33114e-40
4.81821e-41
2.871e-40
0
1.01908e-42
2.03078e-41
8.67625e-43
5.43381e-47
1.90326e-41
1.55393e-40
1.33848e-40
6.23728e-45
2.27592e-42
8.38424e-42
8.21272e-43
1.80377e-40
8.28894e-42
8.11281e-42
4.17353e-42
4.08497e-42
1.29163e-41
3.91377e-42
8.06148e-41
1.6518e-42
1.54452e-43
7.9728e-45
6.72365e-41
2.32909e-41
9.2988e-41
1.48787e-41
3.52116e-41
4.56751e-42
2.18115e-40
9.29596e-41
2.7817e-41
4.19584e-42
7.0293e-41
1.22634e-42
2.80043e-44
2.03142e-42
6.45952e-41
1.81167e-42
3.619e-42
2.01617e-43
1.01079e-43
1.58919e-45
4.15958e-43