/*--------------------------------*- C++ -*----------------------------------*\
| =========                 |                                                 |
| \\      /  F ield         | OpenFOAM: The Open Source CFD Toolbox           |
|  \\    /   O peration     | Version:  dev                                   |
|   \\  /    A nd           | Web:      www.OpenFOAM.org                      |
|    \\/     M anipulation  |                                                 |
\*---------------------------------------------------------------------------*/
FoamFile
{
    version     2.0;
    format      ascii;
    class       volScalarField;
    location    "0";
    object      k;
}
// * * * * * * * * * * * * * * * * * * * * * * * * * * * * * * * * * * * * * //

dimensions      [0 2 -2 0 0 0 0];

internalField   nonuniform List<scalar> 
12225
(
5.98297
5.86414
5.86414
5.86414
5.86414
5.86414
5.86414
5.86414
5.86414
5.86414
5.86414
5.86414
5.86414
5.86414
5.86414
5.86414
5.86414
5.86798
1.38433
0.758289
0.758289
0.758289
0.758289
0.758289
0.758289
0.758289
0.758289
0.758289
0.758289
0.758289
0.758289
0.758289
0.758289
0.758289
0.758289
0.775953
1.96348
0.726266
0.726266
0.726266
0.726266
0.726266
0.726266
0.726266
0.726266
0.726266
0.726266
0.726266
0.726266
0.726266
0.726266
0.726266
0.726266
0.747554
2.57596
0.774006
0.774006
0.774006
0.774006
0.774006
0.774006
0.774006
0.774006
0.774006
0.774006
0.774006
0.774006
0.774006
0.774006
0.774006
0.774006
0.787921
3.04485
0.828432
0.828432
0.828432
0.828432
0.828432
0.828432
0.828432
0.828432
0.828432
0.828432
0.828432
0.828432
0.828432
0.828432
0.828432
0.828432
0.837763
3.28431
0.882337
0.882337
0.882337
0.882337
0.882337
0.882337
0.882337
0.882337
0.882337
0.882337
0.882337
0.882337
0.882337
0.882337
0.882337
0.882337
0.888861
3.25276
0.945298
0.945298
0.945298
0.945298
0.945298
0.945298
0.945298
0.945298
0.945298
0.945298
0.945298
0.945298
0.945298
0.945298
0.945298
0.945298
0.950041
2.97823
0.982617
0.982617
0.982617
0.982617
0.982617
0.982617
0.982617
0.982617
0.982617
0.982617
0.982617
0.982617
0.982617
0.982617
0.982617
0.982617
0.986352
2.57413
1.00725
1.00725
1.00725
1.00725
1.00725
1.00725
1.00725
1.00725
1.00725
1.00725
1.00725
1.00725
1.00725
1.00725
1.00725
1.00725
1.01036
2.04694
1.04861
1.04861
1.04861
1.04861
1.04861
1.04861
1.04861
1.04861
1.04861
1.04861
1.04861
1.04861
1.04861
1.04861
1.04861
1.04861
1.05118
1.48437
1.09221
1.09221
1.09221
1.09221
1.09221
1.09221
1.09221
1.09221
1.09221
1.09221
1.09221
1.09221
1.09221
1.09221
1.09221
1.09221
1.09435
0.420919
0.411533
0.411533
0.411533
0.411533
0.411533
0.411533
0.411533
0.411533
0.411533
0.411533
0.411533
0.411533
0.411533
0.411533
0.411533
0.411533
0.413311
0.00589802
0.00589802
0.00589802
0.00589802
0.00589802
0.00589802
0.00589802
0.00589802
0.00589802
0.00589802
0.00589802
0.00589802
0.00589802
0.00589802
0.00589802
0.00589802
0.00589802
0.00589802
0
0
0
0
0
0
0
0
0
0
0
0
0
0
0
0
0
0
0
0
0
0
0
0
0
0
0
0
0
0
0
0
0
0
0
0
0
0
0
0
0
0
0
0
0
0
0
0
0
0
0
0
0
0
3.69111e-29
0
0
0
0
0
0
0
0
0
0
0
0
0
0
0
0
0
0
0
0
0
0
0
0
0
0
0
0
0
0
0
0
0
0
0
0
0
0
0
0
0
0
0
0
0
0
0
0
0
0
0
0
0
0
0
0
0
0
0
0
0
0
0
0
0
0
0
0
0
0
0
0
0
0
0
0
0
0
0
0
0
0
0
0
0
0
0
0
0
0.163463
0.163463
0.163463
0.163463
0.163463
0.163463
0.163463
0.163463
0.163463
0.163463
0.163463
0.163463
0.163463
0.163463
0.163463
0.163463
0.163463
0.163463
1.14915
0.852763
0.852763
0.852763
0.852763
0.852763
0.852763
0.852763
0.852763
0.852763
0.852763
0.852763
0.852763
0.852763
0.852763
0.852763
0.852763
0.852767
2.2234
1.05043
1.05043
1.05043
1.05043
1.05043
1.05043
1.05043
1.05043
1.05043
1.05043
1.05043
1.05043
1.05043
1.05043
1.05043
1.05043
1.05044
2.96695
0.988626
0.988626
0.988626
0.988626
0.988626
0.988626
0.988626
0.988626
0.988626
0.988626
0.988626
0.988626
0.988626
0.988626
0.988626
0.988626
0.988628
3.30741
0.925561
0.925561
0.925561
0.925561
0.925561
0.925561
0.925561
0.925561
0.925561
0.925561
0.925561
0.925561
0.925561
0.925561
0.925561
0.925561
0.925562
3.15567
0.862375
0.862375
0.862375
0.862375
0.862375
0.862375
0.862375
0.862375
0.862375
0.862375
0.862375
0.862375
0.862375
0.862375
0.862375
0.862375
0.862376
2.58008
0.807055
0.807055
0.807055
0.807055
0.807055
0.807055
0.807055
0.807055
0.807055
0.807055
0.807055
0.807055
0.807055
0.807055
0.807055
0.807055
0.807055
1.82441
0.840065
0.840065
0.840065
0.840065
0.840065
0.840065
0.840065
0.840065
0.840065
0.840065
0.840065
0.840065
0.840065
0.840065
0.840065
0.840065
0.840065
6.68646
6.48152
6.48152
6.48152
6.48152
6.48152
6.48152
6.48152
6.48152
6.48152
6.48152
6.48152
6.48152
6.48152
6.48152
6.48152
6.48152
6.48152
9.90703
7.68929
8.17517
8.48587
8.48478
8.48367
8.48255
8.48143
8.48029
8.47915
8.478
8.47684
8.47566
8.47448
8.47329
8.47209
8.47088
8.46966
8.46843
8.46719
8.46594
8.46468
8.46341
8.46213
8.46084
8.45954
8.45823
8.4569
8.45557
8.45422
8.45287
8.4515
8.45012
8.44873
8.44733
8.44592
8.4445
8.44306
8.44162
8.44016
8.43868
8.4372
8.43571
8.4342
8.43268
8.43115
8.4296
8.42804
8.42647
8.42489
8.42329
8.42168
8.42006
8.41842
8.41677
8.41511
8.41343
8.41174
8.41003
8.40831
8.40658
8.40483
8.40307
8.40129
8.3995
8.39769
8.39587
8.39403
8.39218
8.39031
8.38843
8.38653
8.38461
8.38268
8.38073
8.37877
8.37679
8.37479
8.37278
8.37075
8.3687
8.36664
8.36456
8.36246
8.36034
8.3582
8.35605
8.35388
8.35169
8.34948
8.34726
8.34501
8.34275
8.34046
8.33816
8.33584
8.3335
8.33114
8.32875
8.32635
8.32393
8.32149
8.31902
8.31654
8.31403
8.31151
8.30896
8.30639
8.30379
8.30118
8.29854
8.29588
8.2932
8.29049
8.28776
8.28501
8.28223
8.27943
8.27661
8.27376
8.27088
8.26799
8.26506
8.26211
8.25914
8.25614
8.25311
8.25006
8.24698
8.24387
8.24074
8.23758
8.23439
8.23117
8.22793
8.22466
8.22136
8.21802
8.21466
8.21128
8.20786
8.20441
8.20093
8.19741
8.19387
8.1903
8.18669
8.18306
8.17939
8.17568
8.17195
8.16818
8.16438
8.16054
8.15667
8.15276
8.14882
8.14485
8.14084
8.13679
8.1327
8.12858
8.12442
8.12022
8.11599
8.11172
8.1074
8.10305
8.09866
8.09423
8.08976
8.08524
8.08069
8.07609
8.07145
8.06677
8.06204
8.05728
8.05246
8.04761
9.10222
1.17247
1.02245
0.715459
0.859049
1.08356
1.08342
1.08327
1.08313
1.08298
1.08283
1.08268
1.08254
1.08238
1.08223
1.08208
1.08192
1.08177
1.08161
1.08145
1.08129
1.08113
1.08097
1.08081
1.08064
1.08048
1.08031
1.08014
1.07997
1.0798
1.07962
1.07945
1.07927
1.0791
1.07892
1.07874
1.07855
1.07837
1.07819
1.078
1.07781
1.07762
1.07743
1.07724
1.07704
1.07685
1.07665
1.07645
1.07625
1.07605
1.07585
1.07564
1.07543
1.07522
1.07501
1.0748
1.07459
1.07437
1.07415
1.07393
1.07371
1.07349
1.07326
1.07304
1.07281
1.07258
1.07234
1.07211
1.07187
1.07163
1.07139
1.07115
1.07091
1.07066
1.07041
1.07016
1.06991
1.06965
1.06939
1.06914
1.06887
1.06861
1.06834
1.06808
1.06781
1.06753
1.06726
1.06698
1.0667
1.06642
1.06613
1.06585
1.06556
1.06527
1.06497
1.06468
1.06438
1.06408
1.06377
1.06346
1.06316
1.06284
1.06253
1.06221
1.06189
1.06157
1.06124
1.06091
1.06058
1.06025
1.05991
1.05957
1.05923
1.05888
1.05854
1.05818
1.05783
1.05747
1.05711
1.05675
1.05638
1.05601
1.05564
1.05526
1.05488
1.0545
1.05411
1.05372
1.05333
1.05293
1.05253
1.05213
1.05172
1.05131
1.05089
1.05048
1.05005
1.04963
1.0492
1.04877
1.04833
1.04789
1.04744
1.047
1.04654
1.04609
1.04563
1.04516
1.04469
1.04422
1.04374
1.04326
1.04278
1.04229
1.04179
1.04129
1.04079
1.04028
1.03977
1.03925
1.03873
1.0382
1.03767
1.03714
1.0366
1.03605
1.0355
1.03494
1.03438
1.03382
1.03325
1.03267
1.03209
1.0315
1.03091
1.03031
1.02971
1.0291
1.02848
1.02786
9.10222
1.16353
1.09744
1.16011
1.10486
0.626974
0.739909
1.0205
1.02036
1.02022
1.02008
1.01995
1.0198
1.01966
1.01952
1.01937
1.01923
1.01908
1.01893
1.01878
1.01863
1.01848
1.01833
1.01818
1.01802
1.01786
1.01771
1.01755
1.01739
1.01722
1.01706
1.0169
1.01673
1.01656
1.0164
1.01623
1.01605
1.01588
1.01571
1.01553
1.01535
1.01518
1.015
1.01481
1.01463
1.01445
1.01426
1.01407
1.01389
1.01369
1.0135
1.01331
1.01311
1.01292
1.01272
1.01252
1.01232
1.01211
1.01191
1.0117
1.01149
1.01128
1.01107
1.01086
1.01064
1.01042
1.0102
1.00998
1.00976
1.00953
1.00931
1.00908
1.00885
1.00862
1.00838
1.00815
1.00791
1.00767
1.00742
1.00718
1.00693
1.00669
1.00644
1.00618
1.00593
1.00567
1.00541
1.00515
1.00489
1.00462
1.00435
1.00408
1.00381
1.00354
1.00326
1.00298
1.0027
1.00241
1.00213
1.00184
1.00155
1.00125
1.00096
1.00066
1.00036
1.00005
0.999746
0.999436
0.999124
0.99881
0.998492
0.998172
0.997849
0.997524
0.997195
0.996864
0.99653
0.996193
0.995853
0.995511
0.995165
0.994816
0.994464
0.994109
0.993751
0.99339
0.993026
0.992659
0.992288
0.991915
0.991538
0.991157
0.990774
0.990387
0.989996
0.989603
0.989205
0.988805
0.9884
0.987992
0.987581
0.987166
0.986747
0.986325
0.985899
0.985469
0.985035
0.984597
0.984156
0.98371
0.983261
0.982807
0.98235
0.981888
0.981422
0.980952
0.980478
0.98
0.979517
0.97903
0.978538
0.978042
0.977542
0.977037
0.976528
0.976013
0.975494
0.974971
0.974442
0.973909
0.973371
0.972828
0.97228
0.971727
0.971169
0.970605
0.970037
0.969463
0.968884
0.968305
9.10222
1.16354
1.09745
1.15469
1.21966
1.28522
1.22197
0.640646
0.746973
1.07233
1.07218
1.07204
1.07189
1.07174
1.07159
1.07144
1.07128
1.07113
1.07097
1.07082
1.07066
1.0705
1.07034
1.07018
1.07001
1.06985
1.06968
1.06952
1.06935
1.06918
1.06901
1.06883
1.06866
1.06848
1.06831
1.06813
1.06795
1.06777
1.06758
1.0674
1.06721
1.06702
1.06684
1.06664
1.06645
1.06626
1.06606
1.06587
1.06567
1.06547
1.06527
1.06506
1.06486
1.06465
1.06444
1.06423
1.06402
1.0638
1.06359
1.06337
1.06315
1.06293
1.06271
1.06248
1.06226
1.06203
1.0618
1.06157
1.06133
1.06109
1.06086
1.06062
1.06037
1.06013
1.05988
1.05964
1.05938
1.05913
1.05888
1.05862
1.05836
1.0581
1.05784
1.05757
1.0573
1.05703
1.05676
1.05649
1.05621
1.05593
1.05565
1.05537
1.05508
1.05479
1.0545
1.05421
1.05391
1.05361
1.05331
1.05301
1.0527
1.05239
1.05208
1.05176
1.05145
1.05113
1.05081
1.05048
1.05015
1.04982
1.04949
1.04915
1.04881
1.04847
1.04813
1.04778
1.04743
1.04707
1.04671
1.04635
1.04599
1.04562
1.04525
1.04488
1.04451
1.04413
1.04374
1.04336
1.04297
1.04258
1.04218
1.04178
1.04138
1.04097
1.04056
1.04014
1.03973
1.03931
1.03888
1.03845
1.03802
1.03758
1.03714
1.0367
1.03625
1.0358
1.03534
1.03488
1.03442
1.03395
1.03348
1.033
1.03252
1.03204
1.03155
1.03105
1.03055
1.03005
1.02954
1.02903
1.02852
1.02799
1.02747
1.02694
1.0264
1.02586
1.02532
1.02477
1.02421
1.02365
1.02308
1.02251
1.02194
1.02136
1.02077
1.02018
1.01958
1.01898
1.01837
1.01777
9.10223
1.16355
1.09746
1.1547
1.21967
1.28148
1.33874
1.39482
1.30561
0.658739
0.780726
0.804312
0.806289
0.808286
0.810301
0.812335
0.814389
0.816462
0.818554
0.820667
0.822799
0.824952
0.827126
0.82932
0.831536
0.833772
0.83603
0.83831
0.840612
0.842936
0.845282
0.847651
0.850043
0.852459
0.854897
0.85736
0.859846
0.862357
0.864892
0.867452
0.870037
0.872647
0.875283
0.877945
0.880633
0.883348
0.886089
0.888858
0.891654
0.894478
0.89733
0.900211
0.90312
0.906058
0.909026
0.912023
0.91505
0.918108
0.921197
0.924317
0.927468
0.930652
0.933867
0.937116
0.940397
0.943712
0.947061
0.950443
0.953861
0.957314
0.960802
0.964326
0.967886
0.971483
0.975118
0.97879
0.9825
0.986249
0.990037
0.993865
0.997732
1.00164
1.00559
1.00958
1.01361
1.01769
1.02181
1.02597
1.03018
1.03443
1.03872
1.04307
1.04746
1.05189
1.05638
1.06091
1.06549
1.07012
1.0748
1.07953
1.08431
1.08915
1.09404
1.09898
1.10397
1.10902
1.10877
1.10843
1.10808
1.10773
1.10738
1.10703
1.10667
1.10631
1.10594
1.10557
1.1052
1.10483
1.10445
1.10407
1.10369
1.1033
1.10291
1.10252
1.10212
1.10172
1.10132
1.10091
1.1005
1.10009
1.09967
1.09925
1.09882
1.09839
1.09796
1.09752
1.09708
1.09664
1.09619
1.09574
1.09528
1.09482
1.09435
1.09389
1.09341
1.09294
1.09245
1.09197
1.09148
1.09099
1.09049
1.08998
1.08948
1.08897
1.08845
1.08793
1.0874
1.08687
1.08634
1.0858
1.08525
1.0847
1.08415
1.08359
1.08302
1.08245
1.08187
1.08129
1.08071
1.08012
1.07952
1.07892
1.07831
1.0777
1.07708
1.07645
1.07582
1.07519
1.07454
1.07391
9.10223
1.16357
1.09747
1.15471
1.21968
1.28149
1.33875
1.39171
1.44092
1.49034
0.576158
0.129391
0.129336
0.13041
0.131499
0.132602
0.13372
0.134853
0.136001
0.137164
0.138344
0.139539
0.14075
0.141978
0.143223
0.144485
0.145764
0.147061
0.148376
0.149709
0.15106
0.15243
0.153819
0.155228
0.156656
0.158104
0.159573
0.161062
0.162573
0.164105
0.165658
0.167234
0.168832
0.170454
0.172098
0.173766
0.175458
0.177175
0.178917
0.180684
0.182477
0.184295
0.186141
0.188014
0.189914
0.191843
0.1938
0.195786
0.197802
0.199848
0.201924
0.204032
0.206171
0.208343
0.210548
0.212786
0.215058
0.217365
0.219707
0.222085
0.2245
0.226952
0.229442
0.231971
0.234539
0.237147
0.239796
0.242486
0.245219
0.247995
0.250815
0.25368
0.256591
0.259548
0.262552
0.265605
0.268706
0.271858
0.275061
0.278316
0.281624
0.284986
0.288404
0.291877
0.295408
0.298997
0.302646
0.306355
0.310127
0.313961
0.31786
0.321825
0.325856
0.329956
0.334126
0.338357
0.341957
0.345586
0.349265
0.352996
0.35678
0.360618
0.36451
0.368457
0.37246
0.37652
0.380639
0.384816
0.389053
0.393351
0.397711
0.402133
0.40662
0.411171
0.415788
0.420473
0.425226
0.430048
0.43494
0.439904
0.444941
0.450052
0.455238
0.460501
0.465841
0.471261
0.476761
0.482343
0.488008
0.493758
0.499594
0.505517
0.51153
0.517633
0.523828
0.530116
0.5365
0.542981
0.549561
0.55624
0.563022
0.569908
0.576899
0.583997
0.591205
0.598525
0.605957
0.613505
0.62117
0.628954
0.63686
0.644889
0.653044
0.661327
0.669741
0.678287
0.686968
0.695787
0.704746
0.713847
0.723094
0.732488
0.742033
0.751731
0.761585
0.771598
0.781773
0.792112
0.80262
0.813342
9.10224
1.16359
1.09748
1.15472
1.2197
1.28151
1.33877
1.39173
1.44093
1.4869
0.457242
0.000989947
2.31015e-30
9.72455e-30
1.63405e-28
2.08002e-29
1.45388e-28
4.8818e-29
2.35473e-31
2.05956e-28
1.93482e-29
1.16803e-29
3.00755e-28
5.81602e-29
5.61214e-30
1.28706e-28
2.62972e-29
8.68421e-29
4.51873e-28
3.03768e-29
2.3969e-28
1.96054e-28
1.6278e-29
2.8682e-29
1.796e-30
1.91672e-29
1.53716e-29
2.70914e-28
1.76493e-31
3.03161e-29
6.45553e-29
2.1592e-29
3.69819e-28
1.76812e-28
1.53705e-28
4.29634e-29
4.76804e-29
8.04899e-30
9.26374e-29
1.72422e-28
6.87839e-29
2.2196e-29
2.95798e-29
1.42622e-31
3.33502e-29
7.72244e-29
5.25524e-30
1.14096e-29
6.08712e-29
3.40893e-30
8.68972e-30
5.30328e-29
3.37974e-29
1.28917e-29
1.84898e-28
2.33274e-28
3.11482e-28
1.67423e-28
6.99271e-29
3.08128e-30
4.3198e-30
1.50085e-28
1.928e-30
5.21788e-31
1.28742e-28
1.35879e-28
7.31649e-29
7.76883e-29
1.60946e-30
3.73384e-29
1.05273e-28
3.63242e-29
1.97402e-29
2.22689e-29
2.50448e-30
4.26243e-29
3.60533e-31
1.5489e-29
4.39982e-29
9.88209e-29
3.4138e-31
8.7577e-30
9.48683e-29
1.82506e-28
1.7101e-28
3.71991e-29
1.38779e-30
5.21819e-30
1.91412e-30
2.28709e-29
4.51034e-29
5.60172e-29
6.35719e-29
3.50816e-30
1.76598e-30
6.10702e-29
9.66919e-06
3.97431e-05
9.08923e-05
0.000163804
0.000259186
0.000377765
0.00052029
0.000687532
0.000880284
0.00109936
0.0013456
0.00161988
0.00192307
0.00225609
0.00261989
0.00301544
0.00344373
0.0039058
0.0044027
0.00493552
0.00550538
0.00611344
0.00676088
0.00744894
0.00817887
0.00895197
0.00976959
0.0106331
0.0115439
0.0125035
0.0135133
0.014575
0.0156901
0.0168603
0.0180873
0.0193728
0.0207186
0.0221266
0.0235987
0.0251369
0.0267432
0.0284197
0.0301686
0.0319921
0.0338926
0.0358723
0.0379337
0.0400794
0.042312
0.0446341
0.0470486
0.0495582
0.052166
0.054875
0.0576883
0.0606092
0.063641
0.0667873
0.0700515
0.0734374
0.0769487
0.0805894
0.0843637
0.0882756
0.0923295
0.0965299
0.100881
0.105389
0.110057
0.114892
0.119897
0.125079
0.130444
0.135997
9.10225
1.16362
1.0975
1.15474
1.21972
1.28153
1.33879
1.39175
1.44095
1.48692
0.457196
0.000987503
2.22002e-29
6.3245e-30
1.16331e-28
5.82816e-29
1.34903e-28
1.23758e-29
2.11775e-30
1.96298e-29
3.84265e-28
3.98559e-29
5.19877e-29
6.43057e-28
6.53261e-29
2.13721e-28
3.70832e-29
4.90076e-29
2.11922e-29
2.56383e-29
8.72868e-31
2.99985e-29
5.17265e-29
8.04513e-29
7.47576e-31
3.40639e-28
3.67763e-28
2.04534e-28
2.13685e-31
1.63984e-28
3.1715e-28
2.99117e-29
2.48123e-29
4.27469e-30
8.39956e-30
3.69574e-28
1.15346e-34
4.03847e-30
1.59264e-29
1.33129e-28
2.50137e-30
2.46622e-28
5.56051e-30
1.48384e-29
5.06253e-30
4.99152e-30
5.46952e-31
1.14096e-29
8.04367e-29
1.32536e-28
5.37822e-29
5.40778e-29
2.01055e-28
8.33179e-30
2.89784e-29
1.25361e-29
1.18908e-31
3.15151e-29
7.76976e-30
2.01013e-30
3.02251e-29
1.15303e-29
9.70604e-29
4.31243e-31
1.00847e-28
4.36323e-29
3.97494e-30
3.45284e-29
7.66231e-29
8.39713e-30
1.80928e-28
5.0033e-30
2.88218e-29
3.17902e-29
1.16182e-29
6.14322e-30
1.38564e-29
1.42236e-30
2.71624e-29
1.08508e-29
6.50006e-29
5.956e-29
5.58386e-30
5.36877e-29
6.70335e-29
7.1781e-31
4.06819e-33
2.09843e-30
7.65649e-32
1.16153e-29
7.45333e-30
7.65095e-30
2.19674e-29
1.69785e-29
1.76619e-30
4.2181e-29
1.71945e-30
1.78112e-29
3.73003e-29
3.42615e-30
1.13635e-29
3.58449e-29
3.84353e-29
1.57955e-28
1.42522e-28
2.54071e-29
1.62055e-29
9.9964e-29
1.42075e-28
1.51861e-28
2.28386e-28
2.63325e-29
1.72564e-29
8.79831e-31
2.17124e-31
1.23799e-29
2.03201e-29
1.43376e-28
6.98094e-29
2.8344e-29
1.89092e-29
1.98556e-31
3.41321e-29
1.74068e-30
1.25149e-28
1.27461e-30
1.45963e-28
2.38466e-30
6.97849e-30
3.79305e-30
4.53679e-31
5.482e-30
6.21482e-30
6.55417e-30
1.13824e-30
1.11819e-29
2.62796e-32
8.41032e-30
4.33278e-30
4.25698e-29
6.25362e-31
1.54435e-31
4.78423e-30
4.2536e-29
9.45489e-29
1.25415e-28
9.77174e-30
7.44341e-30
3.10725e-29
2.96588e-30
1.79653e-30
5.96129e-30
2.20334e-32
2.77109e-29
5.75271e-30
1.02324e-28
5.15951e-31
2.03973e-30
2.61276e-29
2.95365e-29
1.43586e-29
7.00902e-31
2.77143e-30
3.04414e-31
4.23201e-30
2.14991e-29
4.43952e-32
4.12316e-32
9.50896e-30
0
9.10226
1.16365
1.09752
1.15476
1.21974
1.28155
1.33881
1.39177
1.44098
1.48695
0.457144
0.000984714
2.17253e-29
4.40792e-29
9.97347e-31
3.65772e-29
2.9333e-28
2.38774e-31
2.353e-31
1.96299e-29
3.4584e-29
2.41817e-33
3.3606e-28
1.10349e-29
8.29414e-30
5.72027e-29
2.24166e-28
2.59214e-29
2.04688e-28
1.00746e-28
7.52595e-29
5.2755e-30
3.45331e-29
1.70638e-30
2.38634e-29
6.85528e-30
4.88462e-29
6.06133e-29
7.34493e-29
1.16996e-29
6.59356e-30
1.522e-30
1.68578e-28
4.44397e-30
1.06186e-28
7.31542e-29
7.62692e-31
1.39751e-30
1.18306e-28
2.66242e-30
2.38084e-30
3.38962e-29
4.89733e-29
4.31803e-29
7.28989e-30
1.44255e-29
2.52782e-28
5.62547e-28
8.71091e-29
1.36357e-29
6.69951e-30
3.42745e-29
6.88061e-29
1.1152e-30
1.95502e-30
4.0794e-29
2.30037e-28
7.50771e-32
3.12459e-30
1.98551e-29
1.16918e-29
9.97516e-31
4.37269e-31
8.94063e-29
2.52121e-29
2.83501e-30
1.53908e-29
6.53452e-32
5.13757e-29
9.94997e-32
7.45395e-29
2.59591e-29
1.91954e-29
1.35488e-31
1.80944e-28
1.40473e-29
9.37601e-30
1.42255e-30
9.12328e-30
2.67944e-29
7.98991e-29
1.41501e-28
1.44689e-29
5.7964e-29
4.42527e-29
5.36109e-30
8.18469e-30
2.68483e-29
2.8816e-29
1.79152e-29
3.10169e-29
6.97599e-29
7.54899e-30
2.75026e-29
2.93973e-29
2.50947e-30
2.6422e-29
1.04354e-29
1.81089e-30
2.23746e-29
3.63228e-29
5.33812e-29
4.83815e-29
2.92439e-29
3.99086e-29
5.16741e-30
3.8738e-32
2.01333e-29
4.09068e-29
5.7847e-29
1.67971e-28
6.83491e-29
2.31838e-29
1.479e-29
1.68142e-29
1.33973e-30
3.46651e-29
1.08283e-29
6.68072e-29
1.36875e-29
5.43475e-30
5.08513e-31
2.53875e-30
3.1512e-32
7.34059e-30
3.9903e-30
3.19699e-32
1.91268e-29
2.1174e-29
1.32577e-29
1.19715e-30
5.91833e-29
1.16701e-28
4.61057e-30
2.69407e-30
2.31553e-29
3.12793e-29
2.41463e-29
2.38495e-29
4.05181e-31
5.29307e-29
2.29866e-29
2.73934e-29
5.10243e-29
5.04068e-29
2.04808e-29
2.02344e-29
1.47022e-30
3.63571e-31
6.48121e-30
4.34365e-30
4.92669e-32
1.35629e-31
4.19084e-30
3.72753e-29
8.35331e-30
2.60091e-29
2.03973e-30
1.46983e-29
5.38828e-29
1.96963e-32
2.18511e-29
4.33036e-32
1.38698e-29
1.20377e-30
1.458e-29
2.7252e-29
1.16334e-30
1.80255e-30
7.27922e-29
9.10227
1.16368
1.09754
1.15478
1.21976
1.28157
1.33883
1.3918
1.441
1.48698
0.457085
0.000981581
2.17253e-29
1.01197e-30
4.1914e-30
5.02531e-29
3.03832e-29
2.14862e-30
5.46659e-28
2.34528e-28
1.53706e-29
1.47829e-29
9.24226e-29
6.6275e-29
8.97944e-29
5.75094e-30
9.78095e-29
4.9008e-29
0
4.04863e-29
2.94586e-29
1.31187e-29
4.56107e-29
1.70638e-30
1.25662e-29
1.91673e-29
1.88948e-29
7.45063e-29
1.67428e-28
6.54832e-29
5.80721e-29
2.54565e-28
2.66727e-28
1.76812e-28
8.39991e-30
6.14037e-30
4.76805e-29
6.46156e-29
5.88069e-29
4.56941e-29
8.2877e-29
1.90666e-29
5.78606e-33
6.65419e-29
1.43998e-30
3.63882e-29
9.81927e-29
2.79524e-29
6.78895e-29
1.22722e-28
4.86387e-29
5.21968e-30
1.06359e-29
1.98258e-30
3.78493e-29
1.73991e-28
7.78705e-29
5.98477e-29
3.49844e-29
1.13953e-31
2.07787e-28
2.62836e-29
2.2664e-29
1.65747e-29
1.14994e-29
5.43547e-30
5.36049e-30
1.83125e-29
1.26176e-29
2.35287e-29
2.56802e-29
2.82756e-34
2.78896e-34
6.11952e-32
4.5386e-30
2.39761e-29
2.25318e-30
8.91536e-32
1.403e-30
7.07536e-29
2.95208e-29
7.9853e-29
1.19821e-31
7.77132e-29
9.12398e-29
4.4407e-29
3.02391e-30
0
3.0626e-31
5.26489e-29
1.10932e-29
2.82696e-30
3.64059e-29
7.1488e-29
1.9103e-30
2.11029e-29
3.51293e-29
1.82539e-29
6.68744e-29
0
7.45056e-29
4.90254e-29
5.94714e-29
8.48837e-29
2.47434e-31
1.55075e-28
7.55823e-30
1.44726e-29
9.39094e-29
1.47152e-28
1.18573e-29
6.10436e-30
8.04437e-29
2.75922e-29
2.08532e-29
6.27923e-34
2.12199e-31
6.61781e-29
4.27572e-29
3.12997e-29
3.27436e-32
4.19837e-30
1.65802e-29
1.00269e-29
2.47487e-30
1.67443e-28
1.37741e-28
6.61807e-32
8.78598e-31
1.83558e-30
1.81316e-30
1.00975e-29
1.10486e-31
4.61057e-30
2.18825e-29
1.12418e-30
3.40584e-29
4.57869e-29
1.35628e-29
3.46688e-29
3.30817e-30
2.00194e-30
3.07619e-29
4.35548e-29
5.04068e-29
1.35562e-29
9.82789e-31
8.29464e-30
8.17516e-31
3.49907e-29
2.21594e-30
2.64946e-30
5.96376e-29
1.73193e-30
2.89335e-29
2.414e-29
1.51157e-33
1.20936e-28
1.17984e-28
5.76023e-30
2.4128e-29
3.12938e-31
4.33036e-30
1.28615e-29
3.00943e-31
2.67771e-30
1.71023e-29
6.91322e-30
1.51165e-29
0
9.10228
1.16371
1.09756
1.1548
1.21978
1.2816
1.33886
1.39183
1.44103
1.48701
0.45702
0.000978106
1.19756e-28
1.0528e-28
4.56549e-35
3.08266e-29
9.11593e-29
5.96827e-28
5.88251e-30
1.18456e-28
9.14539e-31
1.51502e-29
6.72382e-29
8.75611e-31
2.15927e-31
8.17036e-29
1.07076e-28
2.68556e-29
4.70611e-29
4.10212e-28
1.02602e-29
6.60531e-29
5.8227e-29
4.49614e-29
1.5818e-29
6.23724e-29
3.76589e-29
5.65464e-28
2.39014e-28
1.78166e-30
1.02119e-28
2.1915e-28
1.70706e-30
1.99032e-28
1.32531e-28
5.40813e-29
2.34402e-29
1.39739e-30
7.93607e-30
2.62971e-29
5.95209e-31
1.90138e-28
2.08298e-31
5.48282e-30
5.06243e-30
2.48966e-29
2.45482e-29
3.19695e-29
1.16457e-28
2.65401e-28
7.19784e-29
5.94554e-29
2.01055e-28
2.15907e-29
2.054e-28
1.07002e-28
1.4905e-29
2.04164e-29
2.88912e-30
1.75214e-29
1.12707e-31
2.62838e-29
5.66629e-30
6.89894e-30
5.82095e-29
5.26082e-29
3.89173e-29
3.83831e-29
1.60939e-30
6.67082e-30
8.28216e-30
1.21067e-29
2.94892e-29
6.11952e-32
2.50469e-30
1.14603e-29
8.11051e-31
2.22233e-30
2.96875e-29
3.32298e-29
8.74024e-31
5.66001e-30
2.17933e-29
3.82211e-29
4.05512e-29
6.7484e-30
1.25879e-30
1.35218e-29
2.05931e-29
9.47602e-30
2.98124e-31
2.71087e-29
1.95148e-29
2.97935e-29
1.9103e-30
3.49738e-29
1.05753e-29
2.29775e-29
1.492e-28
4.30702e-32
9.22001e-29
5.33812e-29
9.17151e-29
1.44414e-28
9.31242e-29
6.25147e-31
1.86638e-29
2.47477e-29
3.26924e-29
4.90322e-30
7.41043e-29
6.10502e-30
2.28247e-30
1.70361e-29
2.1776e-31
6.72393e-30
1.32238e-28
4.57527e-29
3.29973e-30
6.3843e-30
1.22269e-29
1.20719e-29
7.83565e-31
1.93409e-31
6.89373e-29
3.28538e-29
2.97882e-32
1.24326e-30
1.1671e-31
1.86498e-29
3.03969e-32
6.29363e-30
2.76214e-30
7.8835e-30
5.28037e-30
2.66126e-30
5.91339e-30
2.25885e-29
1.8006e-29
4.96532e-30
9.03023e-30
1.4832e-29
5.49389e-30
3.57438e-29
8.86406e-29
5.8879e-31
2.36769e-32
1.99932e-29
1.71648e-29
2.29646e-29
6.71945e-31
1.97067e-29
2.21565e-29
9.04949e-31
2.16389e-29
1.20282e-29
6.68823e-30
3.42879e-29
1.58071e-29
1.24541e-31
7.09068e-31
6.30955e-30
1.35169e-29
3.04414e-31
4.71601e-31
1.04598e-30
7.78098e-31
4.08987e-32
1.01097e-30
0
9.1023
1.16375
1.09758
1.15483
1.21981
1.28163
1.33889
1.39186
1.44107
1.48704
0.456948
0.000974291
4.10685e-30
2.14122e-29
0
2.08001e-29
2.29773e-28
1.23758e-29
1.99158e-29
8.72861e-29
9.14539e-31
4.67211e-29
4.60514e-29
7.8805e-30
9.88133e-29
5.72029e-29
2.62974e-29
4.90078e-29
3.59313e-30
1.09942e-28
1.97921e-29
3.95077e-28
3.87795e-29
1.24245e-28
2.42876e-29
1.02608e-28
1.22117e-29
2.75286e-29
1.12955e-29
1.11354e-29
1.12411e-28
1.10819e-28
2.25758e-28
6.1854e-29
1.23425e-28
4.94807e-29
3.26562e-29
2.23583e-31
1.08313e-28
1.27743e-29
9.75191e-29
1.90666e-29
9.47989e-29
1.48384e-29
2.48069e-30
1.17356e-29
6.37848e-29
4.85324e-30
1.60969e-28
3.52505e-29
1.34459e-29
1.65616e-29
5.39451e-33
1.61039e-29
1.53278e-29
2.89303e-28
2.30037e-28
3.54756e-29
6.43578e-29
3.52983e-29
3.02251e-29
1.39023e-29
2.95572e-30
2.23516e-29
4.001e-29
1.05152e-31
5.36079e-30
4.24422e-29
1.08798e-29
3.35882e-29
1.48832e-28
4.09568e-29
6.40129e-30
4.86796e-30
2.74007e-29
1.59183e-29
7.62748e-30
3.34558e-29
7.89189e-31
3.11425e-30
7.22254e-30
1.05593e-29
3.45582e-29
1.18294e-28
7.66667e-29
4.00057e-29
2.30449e-34
5.05764e-32
2.07054e-30
5.75437e-29
4.88447e-29
3.06032e-29
7.84792e-30
3.71211e-30
5.97974e-30
5.89977e-30
6.8778e-30
9.19093e-29
5.25052e-31
1.05739e-30
1.50259e-28
7.4398e-29
1.05729e-28
6.41837e-29
5.13086e-29
1.65078e-30
7.06082e-34
2.77449e-29
6.01703e-31
2.22545e-29
1.05764e-29
1.07289e-28
8.56046e-29
2.95982e-29
2.08532e-29
2.19538e-30
2.74206e-30
1.04802e-28
5.57612e-30
4.45888e-29
7.23541e-30
9.60308e-31
2.28487e-29
1.00269e-29
3.63668e-29
5.97407e-29
1.2591e-30
5.76507e-30
7.26114e-31
4.13005e-30
1.13809e-31
3.08363e-30
9.13234e-29
5.28112e-29
2.69407e-30
4.87201e-34
6.18167e-29
3.84756e-29
1.86904e-29
5.74423e-32
6.27194e-31
1.39173e-30
4.30598e-29
1.54502e-30
2.14396e-31
1.48813e-31
2.76747e-29
3.69237e-31
4.45032e-30
1.41807e-31
3.03378e-29
4.92829e-30
5.02685e-32
1.23175e-29
1.54055e-29
7.9405e-30
3.6407e-29
4.28854e-30
3.55641e-29
4.68722e-29
3.55765e-29
2.58055e-30
3.50759e-30
9.20851e-30
5.12211e-30
4.18392e-30
2.06335e-29
1.42563e-29
6.48952e-30
0
9.10231
1.16379
1.09761
1.15486
1.21984
1.28166
1.33892
1.39189
1.4411
1.48708
0.45687
0.000970137
1.02671e-30
1.409e-28
0
2.08003e-29
2.76714e-28
8.70928e-28
2.95163e-29
2.4951e-28
8.22935e-30
5.63285e-30
8.53161e-29
7.41117e-29
8.63232e-31
5.31718e-30
3.35424e-28
1.74905e-29
2.05982e-28
1.69946e-29
2.48272e-29
2.93711e-28
2.0009e-29
7.2877e-30
3.87526e-29
1.50692e-28
2.79247e-29
4.33374e-28
4.62665e-28
1.22768e-29
1.4518e-29
2.70555e-30
1.58143e-28
2.8636e-29
2.56656e-28
3.55873e-28
1.33297e-29
8.50248e-30
2.27844e-29
1.43173e-28
1.15e-28
5.28161e-30
1.44757e-31
1.85353e-29
5.96749e-29
1.80194e-29
2.83488e-29
9.06443e-30
1.32726e-28
3.54393e-30
3.47593e-29
9.15282e-29
3.39819e-30
6.90136e-29
4.45766e-28
2.91669e-28
1.71578e-28
4.68695e-31
3.12586e-30
1.02591e-30
3.32462e-29
1.19873e-29
8.94021e-29
9.12344e-30
4.86844e-29
1.05152e-31
2.14423e-29
8.63203e-30
6.18661e-29
5.14329e-30
3.91693e-31
1.68169e-29
1.97399e-29
2.16945e-29
1.48217e-30
2.45718e-29
3.60467e-31
2.75356e-29
1.09998e-29
1.79369e-29
3.98116e-29
8.62212e-31
7.27564e-29
5.70956e-29
2.50343e-29
3.18923e-31
1.20947e-29
2.79399e-30
9.6043e-30
8.17134e-30
4.15108e-29
3.81299e-30
7.42978e-29
3.34023e-29
4.98431e-30
2.8558e-30
4.09477e-29
3.51827e-30
6.02746e-29
6.09136e-30
3.88302e-29
7.79403e-29
2.74788e-29
7.59073e-29
8.74537e-29
3.16552e-30
2.46864e-30
3.08346e-30
1.98718e-29
5.78468e-29
1.77117e-29
4.77693e-30
3.42656e-29
1.86179e-29
2.53253e-29
5.49315e-31
1.63847e-29
8.69222e-29
6.3871e-29
6.3843e-30
2.60513e-30
7.93643e-31
2.53875e-30
1.63701e-29
5.16362e-30
1.93077e-30
4.78792e-31
1.35986e-29
4.90906e-30
1.38816e-29
2.3005e-29
2.03897e-29
7.51993e-30
6.55417e-30
2.11234e-29
3.27893e-31
3.78426e-30
2.59563e-30
2.23131e-29
6.33096e-29
4.22928e-30
1.36459e-29
2.99032e-29
4.05346e-29
4.3028e-29
1.50792e-30
9.30048e-30
1.4719e-30
3.64818e-31
6.10557e-30
2.44307e-30
7.8827e-31
1.9632e-31
1.44557e-29
1.83901e-29
1.63717e-29
5.16011e-29
7.46594e-29
1.75459e-29
3.90706e-30
9.53446e-30
3.29605e-30
2.49443e-29
1.09589e-29
2.71601e-29
1.787e-29
9.72683e-30
4.59756e-31
6.48339e-31
0
9.10233
1.16384
1.09764
1.15489
1.21987
1.28169
1.33896
1.39193
1.44114
1.48712
0.456785
0.000965648
1.02671e-30
3.24229e-28
8.97631e-30
1.27398e-29
3.87541e-28
5.50036e-28
4.22507e-29
1.4843e-29
3.51486e-29
2.437e-29
8.885e-31
4.53917e-29
1.04448e-30
8.00446e-29
4.97182e-29
5.55789e-29
4.22378e-29
1.11829e-28
1.78129e-30
3.1216e-28
1.6278e-29
1.57248e-28
1.77287e-28
9.40967e-29
7.55793e-29
1.51535e-29
4.747e-29
6.96089e-31
4.0679e-29
3.90682e-29
6.40413e-29
1.36317e-28
1.85105e-28
2.00377e-29
3.81217e-28
2.70537e-29
1.0294e-29
6.03699e-31
1.86658e-29
5.86846e-33
1.87993e-29
4.21934e-29
1.76402e-29
1.49169e-28
9.67326e-29
5.39205e-31
1.80003e-28
9.98381e-29
1.16311e-30
3.42749e-29
3.37973e-29
1.78795e-31
1.87878e-29
9.31227e-29
3.68073e-29
1.18491e-28
6.43575e-29
5.51865e-31
5.82599e-30
1.39023e-29
2.52524e-29
5.02913e-29
9.3142e-29
8.69629e-29
9.05991e-29
5.68017e-29
1.26188e-29
6.5018e-29
4.07219e-29
5.37557e-29
1.28919e-28
2.52551e-29
3.13571e-29
2.47034e-30
3.60731e-31
1.84329e-29
5.7468e-29
1.79366e-29
3.27804e-29
3.03035e-30
3.06129e-29
6.79485e-29
6.15645e-29
2.46974e-29
5.55116e-30
3.62072e-29
5.8325e-29
5.26522e-29
1.72197e-29
3.43092e-29
2.78733e-29
4.58181e-30
7.06394e-30
2.78807e-29
9.93155e-29
1.1745e-28
7.20531e-29
1.37046e-29
5.40937e-29
5.04575e-29
1.87896e-29
1.21347e-28
9.89735e-31
1.65364e-30
3.58726e-29
5.35209e-29
6.62647e-29
1.47152e-28
1.23106e-28
6.07191e-29
1.57258e-29
2.8513e-30
6.36105e-34
1.97553e-29
8.46316e-33
4.9535e-29
4.04149e-29
2.35377e-30
4.40205e-29
1.14602e-29
2.53875e-30
1.98107e-30
1.29146e-30
7.00881e-32
2.41339e-30
5.82469e-29
2.5276e-29
1.83558e-30
2.83225e-30
1.74809e-31
1.72634e-31
3.34162e-31
1.30412e-29
5.98868e-30
2.62989e-30
9.37213e-30
2.3074e-29
1.77837e-29
1.62657e-29
1.30787e-29
4.12518e-30
3.3013e-29
3.82892e-31
3.95613e-29
8.37043e-31
2.29722e-32
3.83583e-30
3.79005e-30
4.34324e-30
1.77521e-30
3.46195e-31
1.7335e-30
2.11302e-30
2.52676e-30
3.99567e-29
1.65368e-30
2.61291e-29
7.17414e-29
3.15141e-31
2.81154e-29
2.09589e-29
3.6834e-29
7.52357e-32
9.83686e-30