/*--------------------------------*- C++ -*----------------------------------*\
| =========                 |                                                 |
| \\      /  F ield         | OpenFOAM: The Open Source CFD Toolbox           |
|  \\    /   O peration     | Version:  dev                                   |
|   \\  /    A nd           | Web:      www.OpenFOAM.org                      |
|    \\/     M anipulation  |                                                 |
\*---------------------------------------------------------------------------*/
FoamFile
{
    version     2.0;
    format      ascii;
    class       volScalarField;
    location    "0";
    object      nuTilda;
}
// * * * * * * * * * * * * * * * * * * * * * * * * * * * * * * * * * * * * * //

dimensions      [0 2 -1 0 0 0 0];

internalField   nonuniform List<scalar> 
12225
(
8.6071e-05
8.5212e-05
8.5212e-05
8.5212e-05
8.5212e-05
8.5212e-05
8.5212e-05
8.5212e-05
8.5212e-05
8.5212e-05
8.5212e-05
8.5212e-05
8.5212e-05
8.5212e-05
8.5212e-05
8.5212e-05
8.5212e-05
8.52399e-05
0.000128466
9.50795e-05
9.50795e-05
9.50795e-05
9.50795e-05
9.50795e-05
9.50795e-05
9.50795e-05
9.50795e-05
9.50795e-05
9.50795e-05
9.50795e-05
9.50795e-05
9.50795e-05
9.50795e-05
9.50795e-05
9.50795e-05
9.61806e-05
0.000267359
0.000162603
0.000162603
0.000162603
0.000162603
0.000162603
0.000162603
0.000162603
0.000162603
0.000162603
0.000162603
0.000162603
0.000162603
0.000162603
0.000162603
0.000162603
0.000162603
0.000164969
0.000450704
0.000247055
0.000247055
0.000247055
0.000247055
0.000247055
0.000247055
0.000247055
0.000247055
0.000247055
0.000247055
0.000247055
0.000247055
0.000247055
0.000247055
0.000247055
0.000247055
0.000249266
0.000663247
0.000345956
0.000345956
0.000345956
0.000345956
0.000345956
0.000345956
0.000345956
0.000345956
0.000345956
0.000345956
0.000345956
0.000345956
0.000345956
0.000345956
0.000345956
0.000345956
0.000347899
0.000887272
0.000459888
0.000459888
0.000459888
0.000459888
0.000459888
0.000459888
0.000459888
0.000459888
0.000459888
0.000459888
0.000459888
0.000459888
0.000459888
0.000459888
0.000459888
0.000459888
0.000461585
0.00110081
0.000593431
0.000593431
0.000593431
0.000593431
0.000593431
0.000593431
0.000593431
0.000593431
0.000593431
0.000593431
0.000593431
0.000593431
0.000593431
0.000593431
0.000593431
0.000593431
0.000594918
0.00124802
0.000716859
0.000716859
0.000716859
0.000716859
0.000716859
0.000716859
0.000716859
0.000716859
0.000716859
0.000716859
0.000716859
0.000716859
0.000716859
0.000716859
0.000716859
0.000716859
0.00071822
0.00133223
0.000833363
0.000833363
0.000833363
0.000833363
0.000833363
0.000833363
0.000833363
0.000833363
0.000833363
0.000833363
0.000833363
0.000833363
0.000833363
0.000833363
0.000833363
0.000833363
0.000834646
0.00136689
0.000978336
0.000978336
0.000978336
0.000978336
0.000978336
0.000978336
0.000978336
0.000978336
0.000978336
0.000978336
0.000978336
0.000978336
0.000978336
0.000978336
0.000978336
0.000978336
0.000979537
0.0013417
0.0011509
0.0011509
0.0011509
0.0011509
0.0011509
0.0011509
0.0011509
0.0011509
0.0011509
0.0011509
0.0011509
0.0011509
0.0011509
0.0011509
0.0011509
0.0011509
0.00115203
0.000824859
0.00081561
0.00081561
0.00081561
0.00081561
0.00081561
0.00081561
0.00081561
0.00081561
0.00081561
0.00081561
0.00081561
0.00081561
0.00081561
0.00081561
0.00081561
0.00081561
0.000817369
9.98102e-05
9.98102e-05
9.98102e-05
9.98102e-05
9.98102e-05
9.98102e-05
9.98102e-05
9.98102e-05
9.98102e-05
9.98102e-05
9.98102e-05
9.98102e-05
9.98102e-05
9.98102e-05
9.98102e-05
9.98102e-05
9.98102e-05
9.98102e-05
0
0
0
0
0
0
0
0
0
0
0
0
0
0
0
0
0
0
0
0
0
0
0
0
0
0
0
0
0
0
0
0
0
0
0
0
0
0
0
0
0
0
0
0
0
0
0
0
0
0
0
0
0
0
7.89587e-18
0
0
0
0
0
0
0
0
0
0
0
0
0
0
0
0
0
0
0
0
0
0
0
0
0
0
0
0
0
0
0
0
0
0
0
0
0
0
0
0
0
0
0
0
0
0
0
0
0
0
0
0
0
0
0
0
0
0
0
0
0
0
0
0
0
0
0
0
0
0
0
0
0
0
0
0
0
0
0
0
0
0
0
0
0
0
0
0
0
0.00052545
0.00052545
0.00052545
0.00052545
0.00052545
0.00052545
0.00052545
0.00052545
0.00052545
0.00052545
0.00052545
0.00052545
0.00052545
0.00052545
0.00052545
0.00052545
0.00052545
0.00052545
0.00121104
0.00104324
0.00104324
0.00104324
0.00104324
0.00104324
0.00104324
0.00104324
0.00104324
0.00104324
0.00104324
0.00104324
0.00104324
0.00104324
0.00104324
0.00104324
0.00104324
0.00104324
0.0013678
0.000940151
0.000940151
0.000940151
0.000940151
0.000940151
0.000940151
0.000940151
0.000940151
0.000940151
0.000940151
0.000940151
0.000940151
0.000940151
0.000940151
0.000940151
0.000940151
0.000940152
0.00125408
0.000723913
0.000723913
0.000723913
0.000723913
0.000723913
0.000723913
0.000723913
0.000723913
0.000723913
0.000723913
0.000723913
0.000723913
0.000723913
0.000723913
0.000723913
0.000723913
0.000723913
0.00101747
0.000538246
0.000538246
0.000538246
0.000538246
0.000538246
0.000538246
0.000538246
0.000538246
0.000538246
0.000538246
0.000538246
0.000538246
0.000538246
0.000538246
0.000538246
0.000538246
0.000538246
0.00072704
0.000380067
0.000380067
0.000380067
0.000380067
0.000380067
0.000380067
0.000380067
0.000380067
0.000380067
0.000380067
0.000380067
0.000380067
0.000380067
0.000380067
0.000380067
0.000380067
0.000380067
0.000442461
0.000247463
0.000247463
0.000247463
0.000247463
0.000247463
0.000247463
0.000247463
0.000247463
0.000247463
0.000247463
0.000247463
0.000247463
0.000247463
0.000247463
0.000247463
0.000247463
0.000247463
0.000211043
0.000143208
0.000143208
0.000143208
0.000143208
0.000143208
0.000143208
0.000143208
0.000143208
0.000143208
0.000143208
0.000143208
0.000143208
0.000143208
0.000143208
0.000143208
0.000143208
0.000143208
0.000129393
0.000127395
0.000127395
0.000127395
0.000127395
0.000127395
0.000127395
0.000127395
0.000127395
0.000127395
0.000127395
0.000127395
0.000127395
0.000127395
0.000127395
0.000127395
0.000127395
0.000127395
0.000186727
0.000352637
0.000363446
0.000370122
0.00036993
0.000369737
0.000369542
0.000369346
0.000369149
0.00036895
0.000368749
0.000368547
0.000368343
0.000368138
0.000367931
0.000367723
0.000367513
0.000367301
0.000367088
0.000366873
0.000366656
0.000366438
0.000366218
0.000365997
0.000365773
0.000365548
0.000365321
0.000365093
0.000364863
0.00036463
0.000364397
0.000364161
0.000363924
0.000363684
0.000363443
0.0003632
0.000362955
0.000362709
0.00036246
0.000362209
0.000361957
0.000361703
0.000361446
0.000361188
0.000360927
0.000360665
0.000360401
0.000360134
0.000359866
0.000359596
0.000359323
0.000359048
0.000358772
0.000358493
0.000358212
0.000357929
0.000357643
0.000357356
0.000357066
0.000356774
0.00035648
0.000356183
0.000355885
0.000355584
0.00035528
0.000354975
0.000354667
0.000354356
0.000354044
0.000353728
0.000353411
0.000353091
0.000352768
0.000352443
0.000352116
0.000351786
0.000351454
0.000351119
0.000350781
0.000350441
0.000350098
0.000349753
0.000349405
0.000349054
0.000348701
0.000348345
0.000347986
0.000347625
0.000347261
0.000346894
0.000346524
0.000346151
0.000345776
0.000345397
0.000345016
0.000344632
0.000344245
0.000343854
0.000343461
0.000343065
0.000342666
0.000342264
0.000341859
0.000341451
0.000341039
0.000340625
0.000340207
0.000339786
0.000339362
0.000338935
0.000338504
0.000338071
0.000337633
0.000337193
0.000336749
0.000336302
0.000335851
0.000335397
0.00033494
0.000334479
0.000334015
0.000333547
0.000333075
0.0003326
0.000332121
0.000331639
0.000331153
0.000330663
0.00033017
0.000329673
0.000329172
0.000328667
0.000328158
0.000327646
0.00032713
0.000326609
0.000326085
0.000325557
0.000325025
0.000324489
0.000323949
0.000323404
0.000322856
0.000322303
0.000321747
0.000321186
0.000320621
0.000320051
0.000319477
0.000318899
0.000318317
0.00031773
0.000317139
0.000316543
0.000315943
0.000315338
0.000314729
0.000314115
0.000313497
0.000312874
0.000312246
0.000311613
0.000310976
0.000310334
0.000309687
0.000309035
0.000308379
0.000307717
0.00030705
0.000306379
0.000305702
0.000305021
0.000304334
0.000303642
0.000302945
0.000302243
0.000301535
0.000300822
0.000300104
0.00029938
0.000178982
0.00019322
0.000301822
0.000322411
0.000353126
0.000396413
0.000396205
0.000395995
0.000395783
0.000395569
0.000395354
0.000395138
0.000394919
0.000394699
0.000394477
0.000394254
0.000394029
0.000393802
0.000393573
0.000393343
0.00039311
0.000392876
0.000392641
0.000392403
0.000392164
0.000391922
0.000391679
0.000391434
0.000391187
0.000390938
0.000390688
0.000390435
0.00039018
0.000389924
0.000389665
0.000389405
0.000389142
0.000388878
0.000388611
0.000388343
0.000388072
0.000387799
0.000387524
0.000387247
0.000386968
0.000386687
0.000386404
0.000386118
0.00038583
0.00038554
0.000385248
0.000384954
0.000384657
0.000384358
0.000384057
0.000383753
0.000383447
0.000383139
0.000382828
0.000382515
0.0003822
0.000381882
0.000381562
0.000381239
0.000380914
0.000380586
0.000380256
0.000379923
0.000379588
0.00037925
0.000378909
0.000378566
0.000378221
0.000377872
0.000377521
0.000377167
0.000376811
0.000376452
0.00037609
0.000375725
0.000375358
0.000374988
0.000374615
0.000374239
0.00037386
0.000373478
0.000373093
0.000372706
0.000372315
0.000371922
0.000371525
0.000371126
0.000370723
0.000370317
0.000369909
0.000369497
0.000369082
0.000368663
0.000368242
0.000367817
0.00036739
0.000366958
0.000366524
0.000366086
0.000365645
0.000365201
0.000364753
0.000364302
0.000363847
0.000363389
0.000362927
0.000362462
0.000361994
0.000361521
0.000361045
0.000360566
0.000360083
0.000359596
0.000359106
0.000358612
0.000358114
0.000357612
0.000357106
0.000356597
0.000356084
0.000355566
0.000355045
0.00035452
0.000353991
0.000353458
0.000352921
0.00035238
0.000351835
0.000351285
0.000350732
0.000350174
0.000349612
0.000349046
0.000348475
0.000347901
0.000347321
0.000346738
0.00034615
0.000345557
0.000344961
0.000344359
0.000343753
0.000343143
0.000342528
0.000341908
0.000341283
0.000340654
0.00034002
0.000339382
0.000338738
0.00033809
0.000337437
0.000336778
0.000336115
0.000335447
0.000334774
0.000334096
0.000333413
0.000332724
0.000332031
0.000331332
0.000330628
0.000329919
0.000329204
0.000328484
0.000327759
0.000327028
0.000326291
0.00032555
0.000324802
0.000324049
0.000323291
0.000322526
0.000321756
0.000320981
0.000178982
0.000192482
0.000312695
0.000451804
0.000569066
0.000502569
0.000545708
0.000640583
0.00064024
0.000639895
0.000639547
0.000639197
0.000638843
0.000638487
0.000638129
0.000637767
0.000637403
0.000637036
0.000636666
0.000636293
0.000635917
0.000635539
0.000635157
0.000634773
0.000634386
0.000633995
0.000633602
0.000633206
0.000632806
0.000632404
0.000631998
0.00063159
0.000631178
0.000630763
0.000630344
0.000629923
0.000629498
0.00062907
0.000628639
0.000628205
0.000627767
0.000627326
0.000626881
0.000626433
0.000625981
0.000625527
0.000625068
0.000624606
0.000624141
0.000623671
0.000623199
0.000622722
0.000622242
0.000621759
0.000621271
0.00062078
0.000620285
0.000619787
0.000619284
0.000618778
0.000618268
0.000617753
0.000617235
0.000616713
0.000616187
0.000615657
0.000615123
0.000614585
0.000614042
0.000613496
0.000612945
0.00061239
0.000611831
0.000611267
0.000610699
0.000610127
0.000609551
0.00060897
0.000608384
0.000607794
0.0006072
0.000606601
0.000605997
0.000605389
0.000604776
0.000604159
0.000603537
0.00060291
0.000602278
0.000601641
0.000601
0.000600354
0.000599702
0.000599046
0.000598385
0.000597718
0.000597047
0.000596371
0.000595689
0.000595002
0.00059431
0.000593612
0.00059291
0.000592202
0.000591488
0.000590769
0.000590045
0.000589315
0.000588579
0.000587838
0.000587092
0.000586339
0.000585581
0.000584817
0.000584047
0.000583272
0.00058249
0.000581703
0.000580909
0.00058011
0.000579304
0.000578493
0.000577675
0.000576851
0.000576021
0.000575184
0.000574341
0.000573492
0.000572636
0.000571774
0.000570905
0.00057003
0.000569148
0.000568259
0.000567363
0.000566461
0.000565552
0.000564636
0.000563713
0.000562783
0.000561846
0.000560903
0.000559951
0.000558993
0.000558028
0.000557055
0.000556074
0.000555087
0.000554092
0.000553089
0.000552079
0.000551061
0.000550036
0.000549003
0.000547962
0.000546913
0.000545856
0.000544792
0.000543719
0.000542638
0.000541549
0.000540452
0.000539347
0.000538233
0.000537111
0.000535981
0.000534842
0.000533695
0.000532539
0.000531374
0.0005302
0.000529018
0.000527827
0.000526627
0.000525418
0.0005242
0.000522973
0.000521737
0.000520491
0.000519238
0.000178982
0.000192484
0.000312697
0.000450747
0.000597902
0.000753053
0.000871165
0.000710569
0.000766914
0.000918445
0.000917946
0.000917443
0.000916936
0.000916425
0.00091591
0.000915391
0.000914868
0.000914341
0.00091381
0.000913275
0.000912736
0.000912193
0.000911645
0.000911094
0.000910538
0.000909977
0.000909413
0.000908844
0.000908271
0.000907693
0.000907111
0.000906524
0.000905933
0.000905338
0.000904737
0.000904132
0.000903523
0.000902909
0.00090229
0.000901666
0.000901038
0.000900404
0.000899766
0.000899123
0.000898475
0.000897822
0.000897164
0.000896501
0.000895833
0.00089516
0.000894481
0.000893797
0.000893108
0.000892414
0.000891715
0.00089101
0.000890299
0.000889584
0.000888862
0.000888136
0.000887403
0.000886665
0.000885922
0.000885172
0.000884417
0.000883656
0.00088289
0.000882117
0.000881338
0.000880554
0.000879763
0.000878967
0.000878164
0.000877355
0.00087654
0.000875719
0.000874892
0.000874058
0.000873218
0.000872371
0.000871518
0.000870658
0.000869792
0.000868919
0.000868039
0.000867153
0.00086626
0.00086536
0.000864453
0.00086354
0.000862619
0.000861691
0.000860756
0.000859815
0.000858865
0.000857909
0.000856945
0.000855974
0.000854996
0.00085401
0.000853017
0.000852016
0.000851007
0.000849991
0.000848967
0.000847935
0.000846895
0.000845847
0.000844792
0.000843728
0.000842656
0.000841576
0.000840488
0.000839392
0.000838287
0.000837174
0.000836052
0.000834922
0.000833783
0.000832635
0.000831479
0.000830314
0.00082914
0.000827958
0.000826766
0.000825565
0.000824355
0.000823136
0.000821908
0.00082067
0.000819423
0.000818167
0.000816901
0.000815625
0.00081434
0.000813045
0.00081174
0.000810426
0.000809101
0.000807766
0.000806422
0.000805067
0.000803702
0.000802326
0.00080094
0.000799544
0.000798137
0.00079672
0.000795291
0.000793852
0.000792403
0.000790942
0.00078947
0.000787987
0.000786493
0.000784988
0.000783471
0.000781943
0.000780403
0.000778852
0.000777289
0.000775715
0.000774128
0.00077253
0.000770919
0.000769297
0.000767662
0.000766015
0.000764356
0.000762684
0.000761
0.000759303
0.000757594
0.000755871
0.000754136
0.000752388
0.000750626
0.000748852
0.000747064
0.000745267
0.000178982
0.000192486
0.000312699
0.00045075
0.000597906
0.000751958
0.000911842
0.00107812
0.00118677
0.000925529
0.00100711
0.00102172
0.00102248
0.00102324
0.00102401
0.00102479
0.00102557
0.00102636
0.00102715
0.00102795
0.00102875
0.00102956
0.00103038
0.00103119
0.00103202
0.00103285
0.00103369
0.00103453
0.00103538
0.00103623
0.00103709
0.00103795
0.00103882
0.0010397
0.00104058
0.00104147
0.00104236
0.00104326
0.00104417
0.00104508
0.001046
0.00104692
0.00104785
0.00104879
0.00104973
0.00105068
0.00105163
0.00105259
0.00105356
0.00105453
0.00105551
0.0010565
0.00105749
0.00105849
0.00105949
0.0010605
0.00106152
0.00106255
0.00106358
0.00106461
0.00106566
0.00106671
0.00106776
0.00106883
0.0010699
0.00107098
0.00107206
0.00107315
0.00107425
0.00107535
0.00107646
0.00107758
0.00107871
0.00107984
0.00108098
0.00108212
0.00108327
0.00108443
0.0010856
0.00108677
0.00108795
0.00108914
0.00109034
0.00109154
0.00109275
0.00109396
0.00109519
0.00109642
0.00109766
0.0010989
0.00110015
0.00110141
0.00110268
0.00110396
0.00110524
0.00110653
0.00110782
0.00110913
0.00111044
0.00111176
0.00111308
0.00111441
0.00111576
0.0011171
0.00111846
0.00111982
0.00111849
0.00111711
0.00111572
0.00111431
0.0011129
0.00111147
0.00111003
0.00110858
0.00110712
0.00110565
0.00110417
0.00110268
0.00110118
0.00109966
0.00109813
0.0010966
0.00109505
0.00109348
0.00109191
0.00109032
0.00108873
0.00108712
0.00108549
0.00108386
0.00108221
0.00108055
0.00107888
0.0010772
0.0010755
0.00107379
0.00107206
0.00107033
0.00106858
0.00106682
0.00106504
0.00106325
0.00106145
0.00105963
0.0010578
0.00105596
0.0010541
0.00105223
0.00105034
0.00104844
0.00104653
0.0010446
0.00104265
0.00104069
0.00103872
0.00103673
0.00103473
0.00103271
0.00103068
0.00102863
0.00102657
0.00102449
0.00102239
0.00102028
0.00101815
0.00101601
0.00101385
0.00101168
0.00100948
0.00100728
0.00100505
0.00100281
0.00100055
0.000998279
0.000995987
0.000993678
0.000991352
0.000989008
0.000986647
0.000984277
0.000178982
0.000192488
0.000312702
0.000450755
0.000597912
0.000751966
0.000911851
0.00107692
0.00124675
0.00142267
0.000981517
0.000467492
0.000467392
0.000469329
0.000471284
0.000473257
0.000475247
0.000477256
0.000479283
0.000481329
0.000483394
0.000485478
0.000487581
0.000489703
0.000491845
0.000494007
0.000496189
0.000498391
0.000500614
0.000502857
0.000505122
0.000507407
0.000509714
0.000512043
0.000514393
0.000516765
0.00051916
0.000521577
0.000524017
0.00052648
0.000528966
0.000531476
0.00053401
0.000536568
0.00053915
0.000541757
0.000544388
0.000547045
0.000549727
0.000552435
0.000555169
0.000557929
0.000560716
0.00056353
0.00056637
0.000569239
0.000572135
0.000575059
0.000578012
0.000580993
0.000584004
0.000587044
0.000590114
0.000593214
0.000596344
0.000599505
0.000602697
0.000605921
0.000609177
0.000612465
0.000615786
0.00061914
0.000622527
0.000625948
0.000629403
0.000632893
0.000636418
0.000639978
0.000643575
0.000647207
0.000650877
0.000654583
0.000658328
0.00066211
0.000665931
0.000669791
0.000673691
0.00067763
0.00068161
0.000685632
0.000689694
0.000693799
0.000697946
0.000702137
0.000706371
0.000710649
0.000714972
0.00071934
0.000723754
0.000728215
0.000732723
0.000737278
0.000741882
0.000746534
0.000751237
0.000755978
0.000759187
0.000762378
0.000765589
0.000768819
0.00077207
0.00077534
0.000778631
0.000781942
0.000785273
0.000788624
0.000791995
0.000795387
0.000798799
0.000802232
0.000805686
0.00080916
0.000812654
0.00081617
0.000819706
0.000823263
0.000826841
0.00083044
0.00083406
0.0008377
0.000841362
0.000845045
0.00084875
0.000852475
0.000856222
0.00085999
0.000863779
0.000867589
0.000871421
0.000875275
0.000879149
0.000883046
0.000886963
0.000890902
0.000894863
0.000898845
0.000902848
0.000906874
0.00091092
0.000914988
0.000919078
0.000923189
0.000927322
0.000931476
0.000935652
0.000939849
0.000944067
0.000948307
0.000952569
0.000956851
0.000961156
0.000965481
0.000969828
0.000974195
0.000978584
0.000982994
0.000987425
0.000991877
0.00099635
0.00100084
0.00100536
0.00100989
0.00101445
0.00101903
0.00102362
0.00102824
0.00103288
0.00103753
0.00104221
0.00104693
0.000178982
0.000192491
0.000312706
0.00045076
0.000597919
0.000751974
0.000911861
0.00107694
0.00124677
0.00142104
0.000874384
4.0891e-05
1.97534e-18
4.05281e-18
1.66133e-17
5.92727e-18
1.56706e-17
9.08054e-18
6.30655e-19
1.86513e-17
5.71665e-18
4.4417e-18
2.25387e-17
9.91139e-18
3.07883e-18
1.47442e-17
6.66464e-18
1.21112e-17
2.76268e-17
7.16296e-18
2.01209e-17
1.81974e-17
5.24351e-18
6.96027e-18
1.74171e-18
5.68985e-18
5.09543e-18
2.13913e-17
5.4599e-19
7.1558e-18
1.04421e-17
6.03904e-18
2.49929e-17
1.72813e-17
1.61126e-17
8.51866e-18
8.97411e-18
3.68716e-18
1.25088e-17
1.70655e-17
1.07787e-17
6.12293e-18
7.06837e-18
4.90812e-19
7.50535e-18
1.14209e-17
2.97933e-18
4.38992e-18
1.01398e-17
2.39956e-18
3.83111e-18
9.46442e-18
7.5555e-18
4.66635e-18
1.76721e-17
1.98497e-17
2.29371e-17
1.68162e-17
1.08679e-17
2.28133e-18
2.70118e-18
1.59217e-17
1.80458e-18
9.3879e-19
1.47463e-17
1.51495e-17
1.11166e-17
1.14551e-17
1.64878e-18
7.94144e-18
1.33346e-17
7.83284e-18
5.77428e-18
6.13297e-18
2.05675e-18
8.48497e-18
7.80359e-19
5.11486e-18
8.62063e-18
1.29195e-17
7.59348e-19
3.84607e-18
1.26585e-17
1.75574e-17
1.69954e-17
7.92662e-18
1.53103e-18
2.9688e-18
1.79807e-18
6.21531e-18
8.72824e-18
9.72707e-18
1.03623e-17
2.43423e-18
1.72709e-18
1.01563e-17
4.04126e-06
8.19318e-06
1.23904e-05
1.66335e-05
2.09232e-05
2.52599e-05
2.96445e-05
3.40775e-05
3.85597e-05
4.30915e-05
4.76739e-05
5.23073e-05
5.69926e-05
6.17305e-05
6.65217e-05
7.13669e-05
7.6267e-05
8.12226e-05
8.62345e-05
9.13036e-05
9.64307e-05
0.000101617
0.000106862
0.000112168
0.000117535
0.000122965
0.000128458
0.000134014
0.000139636
0.000145324
0.000151079
0.000156901
0.000162793
0.000168754
0.000174787
0.000180891
0.000187069
0.000193321
0.000199648
0.000206052
0.000212534
0.000219095
0.000225735
0.000232457
0.000239262
0.000246151
0.000253125
0.000260185
0.000267333
0.000274571
0.0002819
0.000289321
0.000296835
0.000304445
0.000312152
0.000319956
0.000327861
0.000335868
0.000343978
0.000352193
0.000360514
0.000368944
0.000377485
0.000386137
0.000394904
0.000403787
0.000412788
0.000421909
0.000431153
0.00044052
0.000450014
0.000459637
0.00046939
0.000479277
0.000178982
0.000192494
0.00031271
0.000450766
0.000597927
0.000751984
0.000911873
0.00107695
0.00124678
0.00142106
0.000874346
4.08405e-05
6.1235e-18
3.2684e-18
1.40174e-17
9.92173e-18
1.5095e-17
4.57202e-18
1.89129e-18
5.75811e-18
2.54763e-17
8.2048e-18
9.3707e-18
3.29569e-17
1.05042e-17
1.89996e-17
7.91426e-18
9.09816e-18
5.98287e-18
6.58061e-18
1.21422e-18
7.11823e-18
9.34713e-18
1.1657e-17
1.1237e-18
2.39866e-17
2.49233e-17
1.85868e-17
6.00771e-19
1.66427e-17
2.31448e-17
7.10791e-18
6.47374e-18
2.68704e-18
3.7666e-18
2.49846e-17
1.3958e-20
2.61174e-18
5.18656e-18
1.49954e-17
2.05547e-18
2.04097e-17
3.06464e-18
5.00628e-18
2.92419e-18
2.90361e-18
9.61161e-19
4.38992e-18
1.1656e-17
1.49619e-17
9.53105e-18
9.55721e-18
1.8428e-17
3.75138e-18
6.99614e-18
4.60154e-18
4.48154e-19
7.29593e-18
3.62264e-18
1.84261e-18
7.14506e-18
4.41309e-18
1.28039e-17
8.53459e-19
1.30513e-17
8.58471e-18
2.59112e-18
7.63677e-18
1.13763e-17
3.76606e-18
1.74813e-17
2.90703e-18
6.97721e-18
7.32771e-18
4.42987e-18
3.22121e-18
4.83778e-18
1.54998e-18
6.77338e-18
4.28107e-18
1.0478e-17
1.003e-17
3.07106e-18
9.52268e-18
1.06406e-17
1.1011e-18
8.28938e-20
1.88265e-18
3.59614e-19
4.42932e-18
3.54811e-18
3.59484e-18
6.09132e-18
5.35514e-18
1.72719e-18
8.44073e-18
1.70418e-18
5.4849e-18
7.93739e-18
2.40561e-18
4.38104e-18
7.781e-18
8.05725e-18
1.63339e-17
1.55154e-17
6.55087e-18
5.23182e-18
1.2994e-17
1.5491e-17
1.60156e-17
1.96407e-17
6.6691e-18
5.3988e-18
1.21905e-18
6.05585e-19
4.57278e-18
5.85847e-18
1.55618e-17
1.08587e-17
6.91914e-18
5.65142e-18
5.79113e-19
7.59282e-18
1.71467e-18
1.4539e-17
1.46727e-18
1.57015e-17
2.00694e-18
3.43323e-18
2.53114e-18
8.75379e-19
3.04293e-18
3.23993e-18
3.32721e-18
1.38656e-18
4.34589e-18
2.10684e-19
3.76902e-18
2.70523e-18
8.47954e-18
1.02775e-18
5.10734e-19
2.84268e-18
8.47617e-18
1.26372e-17
1.45545e-17
4.06263e-18
3.54575e-18
7.24453e-18
2.2382e-18
1.74197e-18
3.17316e-18
1.92913e-19
6.84143e-18
3.11715e-18
1.31465e-17
9.33525e-19
1.85613e-18
6.64311e-18
7.06319e-18
4.92468e-18
1.08805e-18
2.16358e-18
7.17057e-19
2.67359e-18
6.02604e-18
2.73835e-19
2.63898e-19
4.00763e-18
0
0.000178982
0.000192498
0.000312715
0.000450773
0.000597936
0.000751996
0.000911887
0.00107697
0.0012468
0.00142108
0.000874303
4.07828e-05
6.05765e-18
8.62857e-18
1.29791e-18
7.86008e-18
2.22587e-17
6.35061e-19
6.30424e-19
5.75812e-18
7.64292e-18
6.39094e-20
2.38249e-17
4.31724e-18
3.74289e-18
9.82947e-18
1.94584e-17
6.61685e-18
1.85938e-17
1.30447e-17
1.12746e-17
2.98506e-18
7.63729e-18
1.6977e-18
6.34875e-18
3.40278e-18
9.08316e-18
1.01183e-17
1.11382e-17
4.44537e-18
3.3372e-18
1.60335e-18
1.68742e-17
2.73973e-18
1.33923e-17
1.11158e-17
1.135e-18
1.53638e-18
1.41359e-17
2.12061e-18
2.00533e-18
7.56654e-18
9.09497e-18
8.54013e-18
3.50899e-18
4.93613e-18
2.06631e-17
3.08249e-17
1.21298e-17
4.79911e-18
3.3639e-18
7.60865e-18
1.07804e-17
1.37246e-18
1.81718e-18
8.3008e-18
1.97115e-17
3.56103e-19
2.2973e-18
5.79106e-18
4.44388e-18
1.29802e-18
8.59402e-19
1.22887e-17
6.52569e-18
2.18826e-18
5.09861e-18
3.32222e-19
9.31538e-18
4.09952e-19
1.12206e-17
6.62165e-18
5.69404e-18
4.7838e-19
1.74821e-17
4.871e-18
3.97952e-18
1.55009e-18
3.92552e-18
6.72735e-18
1.1617e-17
1.54597e-17
4.94356e-18
9.89466e-18
8.64553e-18
3.00918e-18
3.71811e-18
6.73411e-18
6.97651e-18
5.50088e-18
7.23803e-18
1.08549e-17
3.5708e-18
6.81566e-18
7.04653e-18
2.05879e-18
6.68043e-18
4.19832e-18
1.74891e-18
6.14752e-18
7.8327e-18
9.49546e-18
9.03986e-18
7.02812e-18
8.21022e-18
2.95432e-18
2.55794e-19
5.83148e-18
8.31226e-18
9.88467e-18
1.68437e-17
1.07445e-17
6.25769e-18
4.9981e-18
5.32918e-18
1.50428e-18
7.65188e-18
4.27663e-18
1.06227e-17
4.80822e-18
3.02978e-18
9.26771e-19
2.07077e-18
2.30706e-19
3.52117e-18
2.59612e-18
2.32377e-19
5.68385e-18
5.98031e-18
4.73213e-18
1.42199e-18
9.99818e-18
1.40397e-17
2.79061e-18
2.13317e-18
6.25385e-18
7.26859e-18
6.38627e-18
6.3469e-18
8.27268e-19
9.4553e-18
6.23102e-18
6.80212e-18
9.28347e-18
9.22712e-18
5.88159e-18
5.8461e-18
1.57584e-18
7.8364e-19
3.30864e-18
2.70863e-18
2.88469e-19
4.78627e-19
2.66056e-18
7.93473e-18
3.75622e-18
6.62803e-18
1.85613e-18
4.98258e-18
9.53997e-18
1.82396e-19
6.07517e-18
2.70448e-19
4.84013e-18
1.42591e-18
4.9625e-18
6.78455e-18
1.40177e-18
1.74488e-18
1.10883e-17
0.000178982
0.000192502
0.00031272
0.000450781
0.000597946
0.000752009
0.000911903
0.00107699
0.00124682
0.0014211
0.000874253
4.07178e-05
6.05765e-18
1.30739e-18
2.66073e-18
9.21304e-18
7.16372e-18
1.90503e-18
3.03865e-17
1.9903e-17
5.09527e-18
4.9969e-18
1.24943e-17
1.05803e-17
1.23153e-17
3.11667e-18
1.28532e-17
9.09819e-18
0
8.26944e-18
7.05387e-18
4.70724e-18
8.77718e-18
1.6977e-18
4.60705e-18
5.68986e-18
5.64928e-18
1.12181e-17
1.68165e-17
1.05169e-17
9.90388e-18
2.07358e-17
2.12254e-17
1.72813e-17
3.76668e-18
3.22047e-18
8.97412e-18
1.0447e-17
9.96634e-18
8.7852e-18
1.18315e-17
5.6749e-18
9.88583e-20
1.06015e-17
1.55955e-18
7.83974e-18
1.28784e-17
6.87118e-18
1.07084e-17
1.43973e-17
9.06385e-18
2.96923e-18
4.23846e-18
1.82994e-18
7.99559e-18
1.71429e-17
1.14685e-17
1.00542e-17
7.68704e-18
4.38717e-19
1.8734e-17
6.66291e-18
6.18714e-18
5.29108e-18
4.40717e-18
3.02998e-18
3.00901e-18
5.56154e-18
4.61647e-18
6.30407e-18
6.58599e-18
2.18538e-20
2.17041e-20
3.215e-19
2.76874e-18
6.36372e-18
1.95083e-18
3.88053e-19
1.5394e-18
1.09319e-17
7.06132e-18
1.16136e-17
4.49871e-19
1.14569e-17
1.24141e-17
8.66059e-18
2.25999e-18
0
7.19228e-19
9.4301e-18
4.32863e-18
2.18515e-18
7.84166e-18
1.09885e-17
1.79627e-18
5.97026e-18
7.70294e-18
5.55264e-18
1.0628e-17
0
1.1218e-17
9.09981e-18
1.00225e-17
1.19739e-17
6.46474e-19
1.61843e-17
3.57299e-18
4.94418e-18
1.25944e-17
1.57654e-17
4.47521e-18
3.21101e-18
1.16565e-17
6.82676e-18
5.93483e-18
3.25668e-20
5.98678e-19
1.05725e-17
8.49819e-18
7.27096e-18
2.35171e-19
2.66294e-18
5.29196e-18
4.11533e-18
2.04455e-18
1.68173e-17
1.52529e-17
3.34339e-19
1.2182e-18
1.76079e-18
1.75001e-18
4.12979e-18
4.31991e-19
2.79061e-18
6.07954e-18
1.37797e-18
7.58462e-18
8.79412e-18
4.78627e-18
7.65228e-18
2.36382e-18
1.83885e-18
7.20822e-18
8.57708e-18
9.22712e-18
4.7851e-18
1.2884e-18
3.743e-18
1.17509e-18
7.68773e-18
1.93464e-18
2.11544e-18
1.00365e-17
1.71036e-18
6.99072e-18
6.38543e-18
5.05285e-20
1.42922e-17
1.41167e-17
3.11919e-18
6.38384e-18
7.27028e-19
2.70448e-18
4.66087e-18
7.12957e-19
2.12669e-18
5.37464e-18
3.41713e-18
5.05297e-18
0
0.000178982
0.000192507
0.000312726
0.000450789
0.000597958
0.000752023
0.000911921
0.00107701
0.00124685
0.00142113
0.000874199
4.06457e-05
1.42223e-17
1.33351e-17
8.78143e-21
7.2158e-18
1.24086e-17
3.17502e-17
3.15212e-18
1.41449e-17
1.24286e-18
5.0586e-18
1.06569e-17
1.21612e-18
6.03913e-19
1.17474e-17
1.34483e-17
6.73502e-18
8.91564e-18
2.63224e-17
4.16294e-18
1.05625e-17
9.91708e-18
8.71448e-18
5.16889e-18
1.0264e-17
7.97546e-18
3.09047e-17
2.00924e-17
1.73474e-18
1.31334e-17
1.92394e-17
1.69803e-18
1.83351e-17
1.49617e-17
9.55752e-18
6.29219e-18
1.53632e-18
3.66121e-18
6.66463e-18
1.00267e-18
1.79207e-17
5.9315e-19
3.04315e-18
2.92416e-18
6.48473e-18
6.43919e-18
7.34834e-18
1.40251e-17
2.11726e-17
1.10261e-17
1.00211e-17
1.8428e-17
6.03885e-18
1.86261e-17
1.34437e-17
5.0175e-18
5.87234e-18
2.20905e-18
5.44009e-18
4.36312e-19
6.66294e-18
3.09365e-18
3.4136e-18
9.91559e-18
9.42646e-18
8.10761e-18
8.05178e-18
1.64874e-18
3.35669e-18
3.74019e-18
4.52205e-18
7.05753e-18
3.21499e-19
2.05683e-18
4.39966e-18
1.17043e-18
1.93743e-18
7.08123e-18
7.49179e-18
1.21502e-18
3.09194e-18
6.06713e-18
8.03477e-18
8.27606e-18
3.37615e-18
1.45814e-18
4.77903e-18
5.8977e-18
4.00069e-18
7.09611e-19
6.76669e-18
5.74121e-18
7.09385e-18
1.79627e-18
7.68587e-18
4.22638e-18
6.22979e-18
1.58747e-17
2.69718e-19
1.24792e-17
9.49546e-18
1.24464e-17
1.5618e-17
1.25416e-17
1.02757e-18
5.61463e-18
6.46531e-18
7.43096e-18
2.87781e-18
1.11878e-17
3.21118e-18
1.96347e-18
5.36422e-18
6.06472e-19
3.37003e-18
1.49451e-17
8.79084e-18
2.36081e-18
3.28381e-18
4.54443e-18
4.51554e-18
1.15043e-18
5.71557e-19
1.07907e-17
7.44928e-18
2.24307e-19
1.44912e-18
4.43993e-19
5.61252e-18
2.26588e-19
3.26041e-18
2.15996e-18
3.64906e-18
2.98644e-18
2.12014e-18
3.16039e-18
6.17682e-18
5.5148e-18
2.89598e-18
3.90545e-18
5.0052e-18
3.04622e-18
7.77002e-18
1.2236e-17
9.97245e-19
1.99979e-19
5.81116e-18
5.38444e-18
6.22803e-18
1.06534e-18
5.76938e-18
6.11748e-18
1.23633e-18
6.0456e-18
4.50736e-18
3.36107e-18
7.61013e-18
5.16711e-18
4.58646e-19
1.09437e-18
3.26453e-18
4.77816e-18
7.17057e-19
8.92501e-19
1.32918e-18
1.14641e-18
2.62831e-19
1.30675e-18
0
0.000178982
0.000192512
0.000312732
0.000450799
0.00059797
0.000752039
0.00091194
0.00107703
0.00124687
0.00142116
0.000874139
4.05664e-05
2.63376e-18
6.01385e-18
0
5.92727e-18
1.97002e-17
4.57202e-18
5.79991e-18
1.21421e-17
1.24286e-18
8.88338e-18
8.81948e-18
3.64837e-18
1.2919e-17
9.82948e-18
6.66466e-18
9.09817e-18
2.46353e-18
1.36271e-17
5.78186e-18
2.58323e-17
8.09325e-18
1.44864e-17
6.40493e-18
1.31647e-17
4.5416e-18
6.81889e-18
4.36792e-18
4.33685e-18
1.37793e-17
1.36814e-17
1.95274e-17
1.02213e-17
1.44386e-17
9.14197e-18
7.42685e-18
6.14527e-19
1.35258e-17
4.64504e-18
1.28341e-17
5.6749e-18
1.26539e-17
5.00628e-18
2.04695e-18
4.4522e-18
1.03796e-17
2.86311e-18
1.64889e-17
7.71622e-18
4.76559e-18
5.289e-18
9.54548e-20
5.21539e-18
5.08816e-18
2.21054e-17
1.97115e-17
7.74081e-18
1.04261e-17
7.72145e-18
7.14506e-18
4.8458e-18
2.23436e-18
6.14434e-18
8.22065e-18
4.21435e-19
3.0091e-18