/*--------------------------------*- C++ -*----------------------------------*\
| =========                 |                                                 |
| \\      /  F ield         | OpenFOAM: The Open Source CFD Toolbox           |
|  \\    /   O peration     | Version:  dev                                   |
|   \\  /    A nd           | Web:      www.OpenFOAM.org                      |
|    \\/     M anipulation  |                                                 |
\*---------------------------------------------------------------------------*/
FoamFile
{
    version     2.0;
    format      ascii;
    class       volVectorField;
    location    "0";
    object      U;
}
// * * * * * * * * * * * * * * * * * * * * * * * * * * * * * * * * * * * * * //

dimensions      [0 1 -1 0 0 0 0];

internalField   nonuniform List<vector> 
12225
(
(5.97149 0 0)
(5.97149 0 0)
(5.97149 0 0)
(5.97149 0 0)
(5.97149 0 0)
(5.97149 0 0)
(5.97149 0 0)
(5.97149 0 0)
(5.97149 0 0)
(5.97149 0 0)
(5.97149 0 0)
(5.97149 0 0)
(5.97149 0 0)
(5.97149 0 0)
(5.97149 0 0)
(5.97149 0 0)
(5.97149 0 0)
(5.97149 0 0)
(7.01997 0 0)
(7.01997 0 0)
(7.01997 0 0)
(7.01997 0 0)
(7.01997 0 0)
(7.01997 0 0)
(7.01997 0 0)
(7.01997 0 0)
(7.01997 0 0)
(7.01997 0 0)
(7.01997 0 0)
(7.01997 0 0)
(7.01997 0 0)
(7.01997 0 0)
(7.01997 0 0)
(7.01997 0 0)
(7.01997 0 0)
(7.01997 0 0)
(7.60266 0 0)
(7.60266 0 0)
(7.60266 0 0)
(7.60266 0 0)
(7.60266 0 0)
(7.60266 0 0)
(7.60266 0 0)
(7.60266 0 0)
(7.60266 0 0)
(7.60266 0 0)
(7.60266 0 0)
(7.60266 0 0)
(7.60266 0 0)
(7.60266 0 0)
(7.60266 0 0)
(7.60266 0 0)
(7.60266 0 0)
(7.60266 0 0)
(8.0342 0 0)
(8.0342 0 0)
(8.0342 0 0)
(8.0342 0 0)
(8.0342 0 0)
(8.0342 0 0)
(8.0342 0 0)
(8.0342 0 0)
(8.0342 0 0)
(8.0342 0 0)
(8.0342 0 0)
(8.0342 0 0)
(8.0342 0 0)
(8.0342 0 0)
(8.0342 0 0)
(8.0342 0 0)
(8.0342 0 0)
(8.0342 0 0)
(8.38927 0 0)
(8.38927 0 0)
(8.38927 0 0)
(8.38927 0 0)
(8.38927 0 0)
(8.38927 0 0)
(8.38927 0 0)
(8.38927 0 0)
(8.38927 0 0)
(8.38927 0 0)
(8.38927 0 0)
(8.38927 0 0)
(8.38927 0 0)
(8.38927 0 0)
(8.38927 0 0)
(8.38927 0 0)
(8.38927 0 0)
(8.38927 0 0)
(8.69822 0 0)
(8.69822 0 0)
(8.69822 0 0)
(8.69822 0 0)
(8.69822 0 0)
(8.69822 0 0)
(8.69822 0 0)
(8.69822 0 0)
(8.69822 0 0)
(8.69822 0 0)
(8.69822 0 0)
(8.69822 0 0)
(8.69822 0 0)
(8.69822 0 0)
(8.69822 0 0)
(8.69822 0 0)
(8.69822 0 0)
(8.69822 0 0)
(8.97654 0 0)
(8.97654 0 0)
(8.97654 0 0)
(8.97654 0 0)
(8.97654 0 0)
(8.97654 0 0)
(8.97654 0 0)
(8.97654 0 0)
(8.97654 0 0)
(8.97654 0 0)
(8.97654 0 0)
(8.97654 0 0)
(8.97654 0 0)
(8.97654 0 0)
(8.97654 0 0)
(8.97654 0 0)
(8.97654 0 0)
(8.97654 0 0)
(9.19669 0 0)
(9.19669 0 0)
(9.19669 0 0)
(9.19669 0 0)
(9.19669 0 0)
(9.19669 0 0)
(9.19669 0 0)
(9.19669 0 0)
(9.19669 0 0)
(9.19669 0 0)
(9.19669 0 0)
(9.19669 0 0)
(9.19669 0 0)
(9.19669 0 0)
(9.19669 0 0)
(9.19669 0 0)
(9.19669 0 0)
(9.19669 0 0)
(9.38007 0 0)
(9.38007 0 0)
(9.38007 0 0)
(9.38007 0 0)
(9.38007 0 0)
(9.38007 0 0)
(9.38007 0 0)
(9.38007 0 0)
(9.38007 0 0)
(9.38007 0 0)
(9.38007 0 0)
(9.38007 0 0)
(9.38007 0 0)
(9.38007 0 0)
(9.38007 0 0)
(9.38007 0 0)
(9.38007 0 0)
(9.38007 0 0)
(9.56993 0 0)
(9.56993 0 0)
(9.56993 0 0)
(9.56993 0 0)
(9.56993 0 0)
(9.56993 0 0)
(9.56993 0 0)
(9.56993 0 0)
(9.56993 0 0)
(9.56993 0 0)
(9.56993 0 0)
(9.56993 0 0)
(9.56993 0 0)
(9.56993 0 0)
(9.56993 0 0)
(9.56993 0 0)
(9.56993 0 0)
(9.56993 0 0)
(9.76615 0 0)
(9.76615 0 0)
(9.76615 0 0)
(9.76615 0 0)
(9.76615 0 0)
(9.76615 0 0)
(9.76615 0 0)
(9.76615 0 0)
(9.76615 0 0)
(9.76615 0 0)
(9.76615 0 0)
(9.76615 0 0)
(9.76615 0 0)
(9.76615 0 0)
(9.76615 0 0)
(9.76615 0 0)
(9.76615 0 0)
(9.76615 0 0)
(9.96866 0 0)
(9.96866 0 0)
(9.96866 0 0)
(9.96866 0 0)
(9.96866 0 0)
(9.96866 0 0)
(9.96866 0 0)
(9.96866 0 0)
(9.96866 0 0)
(9.96866 0 0)
(9.96866 0 0)
(9.96866 0 0)
(9.96866 0 0)
(9.96866 0 0)
(9.96866 0 0)
(9.96866 0 0)
(9.96866 0 0)
(9.96866 0 0)
(10 0 0)
(10 0 0)
(10 0 0)
(10 0 0)
(10 0 0)
(10 0 0)
(10 0 0)
(10 0 0)
(10 0 0)
(10 0 0)
(10 0 0)
(10 0 0)
(10 0 0)
(10 0 0)
(10 0 0)
(10 0 0)
(10 0 0)
(10 0 0)
(10 0 0)
(10 0 0)
(10 0 0)
(10 0 0)
(10 0 0)
(10 0 0)
(10 0 0)
(10 0 0)
(10 0 0)
(10 0 0)
(10 0 0)
(10 0 0)
(10 0 0)
(10 0 0)
(10 0 0)
(10 0 0)
(10 0 0)
(10 0 0)
(10 0 0)
(10 0 0)
(10 0 0)
(10 0 0)
(10 0 0)
(10 0 0)
(10 0 0)
(10 0 0)
(10 0 0)
(10 0 0)
(10 0 0)
(10 0 0)
(10 0 0)
(10 0 0)
(10 0 0)
(10 0 0)
(10 0 0)
(10 0 0)
(10 0 0)
(10 0 0)
(10 0 0)
(10 0 0)
(10 0 0)
(10 0 0)
(10 0 0)
(10 0 0)
(10 0 0)
(10 0 0)
(10 0 0)
(10 0 0)
(10 0 0)
(10 0 0)
(10 0 0)
(10 0 0)
(10 0 0)
(10 0 0)
(10 0 0)
(10 0 0)
(10 0 0)
(10 0 0)
(10 0 0)
(10 0 0)
(10 0 0)
(10 0 0)
(10 0 0)
(10 0 0)
(10 0 0)
(10 0 0)
(10 0 0)
(10 0 0)
(10 0 0)
(10 0 0)
(10 0 0)
(10 0 0)
(10 0 0)
(10 0 0)
(10 0 0)
(10 0 0)
(10 0 0)
(10 0 0)
(10 0 0)
(10 0 0)
(10 0 0)
(10 0 0)
(10 0 0)
(10 0 0)
(10 0 0)
(10 0 0)
(10 0 0)
(10 0 0)
(10 0 0)
(10 0 0)
(10 0 0)
(10 0 0)
(10 0 0)
(10 0 0)
(10 0 0)
(10 0 0)
(10 0 0)
(10 0 0)
(10 0 0)
(10 0 0)
(10 0 0)
(10 0 0)
(10 0 0)
(10 0 0)
(10 0 0)
(10 0 0)
(10 0 0)
(10 0 0)
(10 0 0)
(10 0 0)
(10 0 0)
(10 0 0)
(10 0 0)
(10 0 0)
(10 0 0)
(10 0 0)
(10 0 0)
(10 0 0)
(10 0 0)
(10 0 0)
(10 0 0)
(10 0 0)
(10 0 0)
(10 0 0)
(10 0 0)
(10 0 0)
(10 0 0)
(10 0 0)
(10 0 0)
(10 0 0)
(10 0 0)
(10 0 0)
(10 0 0)
(10 0 0)
(10 0 0)
(10 0 0)
(10 0 0)
(10 0 0)
(10 0 0)
(10 0 0)
(10 0 0)
(10 0 0)
(10 0 0)
(10 0 0)
(10 0 0)
(10 0 0)
(10 0 0)
(10 0 0)
(10 0 0)
(10 0 0)
(10 0 0)
(10 0 0)
(10 0 0)
(10 0 0)
(10 0 0)
(10 0 0)
(10 0 0)
(10 0 0)
(10 0 0)
(10 0 0)
(10 0 0)
(10 0 0)
(9.80182 0 0)
(9.80182 0 0)
(9.80182 0 0)
(9.80182 0 0)
(9.80182 0 0)
(9.80182 0 0)
(9.80182 0 0)
(9.80182 0 0)
(9.80182 0 0)
(9.80182 0 0)
(9.80182 0 0)
(9.80182 0 0)
(9.80182 0 0)
(9.80182 0 0)
(9.80182 0 0)
(9.80182 0 0)
(9.80182 0 0)
(9.80182 0 0)
(9.51447 0 0)
(9.51447 0 0)
(9.51447 0 0)
(9.51447 0 0)
(9.51447 0 0)
(9.51447 0 0)
(9.51447 0 0)
(9.51447 0 0)
(9.51447 0 0)
(9.51447 0 0)
(9.51447 0 0)
(9.51447 0 0)
(9.51447 0 0)
(9.51447 0 0)
(9.51447 0 0)
(9.51447 0 0)
(9.51447 0 0)
(9.51447 0 0)
(9.20555 0 0)
(9.20555 0 0)
(9.20555 0 0)
(9.20555 0 0)
(9.20555 0 0)
(9.20555 0 0)
(9.20555 0 0)
(9.20555 0 0)
(9.20555 0 0)
(9.20555 0 0)
(9.20555 0 0)
(9.20555 0 0)
(9.20555 0 0)
(9.20555 0 0)
(9.20555 0 0)
(9.20555 0 0)
(9.20555 0 0)
(9.20555 0 0)
(8.8656 0 0)
(8.8656 0 0)
(8.8656 0 0)
(8.8656 0 0)
(8.8656 0 0)
(8.8656 0 0)
(8.8656 0 0)
(8.8656 0 0)
(8.8656 0 0)
(8.8656 0 0)
(8.8656 0 0)
(8.8656 0 0)
(8.8656 0 0)
(8.8656 0 0)
(8.8656 0 0)
(8.8656 0 0)
(8.8656 0 0)
(8.8656 0 0)
(8.47838 0 0)
(8.47838 0 0)
(8.47838 0 0)
(8.47838 0 0)
(8.47838 0 0)
(8.47838 0 0)
(8.47838 0 0)
(8.47838 0 0)
(8.47838 0 0)
(8.47838 0 0)
(8.47838 0 0)
(8.47838 0 0)
(8.47838 0 0)
(8.47838 0 0)
(8.47838 0 0)
(8.47838 0 0)
(8.47838 0 0)
(8.47838 0 0)
(8.01213 0 0)
(8.01213 0 0)
(8.01213 0 0)
(8.01213 0 0)
(8.01213 0 0)
(8.01213 0 0)
(8.01213 0 0)
(8.01213 0 0)
(8.01213 0 0)
(8.01213 0 0)
(8.01213 0 0)
(8.01213 0 0)
(8.01213 0 0)
(8.01213 0 0)
(8.01213 0 0)
(8.01213 0 0)
(8.01213 0 0)
(8.01213 0 0)
(7.38873 0 0)
(7.38873 0 0)
(7.38873 0 0)
(7.38873 0 0)
(7.38873 0 0)
(7.38873 0 0)
(7.38873 0 0)
(7.38873 0 0)
(7.38873 0 0)
(7.38873 0 0)
(7.38873 0 0)
(7.38873 0 0)
(7.38873 0 0)
(7.38873 0 0)
(7.38873 0 0)
(7.38873 0 0)
(7.38873 0 0)
(7.38873 0 0)
(6.27953 0 0)
(6.27953 0 0)
(6.27953 0 0)
(6.27953 0 0)
(6.27953 0 0)
(6.27953 0 0)
(6.27953 0 0)
(6.27953 0 0)
(6.27953 0 0)
(6.27953 0 0)
(6.27953 0 0)
(6.27953 0 0)
(6.27953 0 0)
(6.27953 0 0)
(6.27953 0 0)
(6.27953 0 0)
(6.27953 0 0)
(6.27953 0 0)
(6.4341 0 0)
(7.17455 0 0)
(7.17409 0 0)
(7.17363 0 0)
(7.17317 0 0)
(7.1727 0 0)
(7.17223 0 0)
(7.17175 0 0)
(7.17127 0 0)
(7.17079 0 0)
(7.1703 0 0)
(7.16981 0 0)
(7.16932 0 0)
(7.16882 0 0)
(7.16831 0 0)
(7.16781 0 0)
(7.16729 0 0)
(7.16678 0 0)
(7.16626 0 0)
(7.16573 0 0)
(7.1652 0 0)
(7.16467 0 0)
(7.16413 0 0)
(7.16359 0 0)
(7.16304 0 0)
(7.16249 0 0)
(7.16194 0 0)
(7.16138 0 0)
(7.16081 0 0)
(7.16024 0 0)
(7.15967 0 0)
(7.15909 0 0)
(7.15851 0 0)
(7.15792 0 0)
(7.15732 0 0)
(7.15673 0 0)
(7.15612 0 0)
(7.15551 0 0)
(7.1549 0 0)
(7.15428 0 0)
(7.15366 0 0)
(7.15303 0 0)
(7.1524 0 0)
(7.15176 0 0)
(7.15111 0 0)
(7.15046 0 0)
(7.14981 0 0)
(7.14915 0 0)
(7.14848 0 0)
(7.14781 0 0)
(7.14713 0 0)
(7.14645 0 0)
(7.14576 0 0)
(7.14507 0 0)
(7.14436 0 0)
(7.14366 0 0)
(7.14295 0 0)
(7.14223 0 0)
(7.1415 0 0)
(7.14077 0 0)
(7.14004 0 0)
(7.1393 0 0)
(7.13855 0 0)
(7.13779 0 0)
(7.13703 0 0)
(7.13626 0 0)
(7.13549 0 0)
(7.13471 0 0)
(7.13392 0 0)
(7.13313 0 0)
(7.13233 0 0)
(7.13152 0 0)
(7.1307 0 0)
(7.12988 0 0)
(7.12905 0 0)
(7.12822 0 0)
(7.12738 0 0)
(7.12653 0 0)
(7.12567 0 0)
(7.12481 0 0)
(7.12393 0 0)
(7.12306 0 0)
(7.12217 0 0)
(7.12128 0 0)
(7.12037 0 0)
(7.11947 0 0)
(7.11855 0 0)
(7.11762 0 0)
(7.11669 0 0)
(7.11575 0 0)
(7.1148 0 0)
(7.11384 0 0)
(7.11288 0 0)
(7.11191 0 0)
(7.11092 0 0)
(7.10993 0 0)
(7.10893 0 0)
(7.10793 0 0)
(7.10691 0 0)
(7.10589 0 0)
(7.10485 0 0)
(7.10381 0 0)
(7.10276 0 0)
(7.1017 0 0)
(7.10063 0 0)
(7.09955 0 0)
(7.09846 0 0)
(7.09736 0 0)
(7.09625 0 0)
(7.09514 0 0)
(7.09401 0 0)
(7.09287 0 0)
(7.09172 0 0)
(7.09057 0 0)
(7.0894 0 0)
(7.08822 0 0)
(7.08703 0 0)
(7.08584 0 0)
(7.08463 0 0)
(7.08341 0 0)
(7.08218 0 0)
(7.08094 0 0)
(7.07968 0 0)
(7.07842 0 0)
(7.07715 0 0)
(7.07586 0 0)
(7.07456 0 0)
(7.07326 0 0)
(7.07194 0 0)
(7.0706 0 0)
(7.06926 0 0)
(7.0679 0 0)
(7.06654 0 0)
(7.06516 0 0)
(7.06376 0 0)
(7.06236 0 0)
(7.06094 0 0)
(7.05951 0 0)
(7.05807 0 0)
(7.05661 0 0)
(7.05514 0 0)
(7.05366 0 0)
(7.05216 0 0)
(7.05065 0 0)
(7.04913 0 0)
(7.04759 0 0)
(7.04604 0 0)
(7.04447 0 0)
(7.04289 0 0)
(7.0413 0 0)
(7.03969 0 0)
(7.03807 0 0)
(7.03643 0 0)
(7.03478 0 0)
(7.03311 0 0)
(7.03142 0 0)
(7.02972 0 0)
(7.02801 0 0)
(7.02628 0 0)
(7.02453 0 0)
(7.02277 0 0)
(7.02099 0 0)
(7.01919 0 0)
(7.01738 0 0)
(7.01555 0 0)
(7.0137 0 0)
(7.01183 0 0)
(7.00995 0 0)
(7.00805 0 0)
(7.00613 0 0)
(7.0042 0 0)
(7.00224 0 0)
(7.00027 0 0)
(6.99828 0 0)
(6.99627 0 0)
(6.99424 0 0)
(6.99219 0 0)
(6.99012 0 0)
(6.98804 0 0)
(6.98593 0 0)
(6.4341 0 0)
(7.53029 0 0)
(8.10456 0 0)
(8.39266 0 0)
(8.39211 0 0)
(8.39156 0 0)
(8.39101 0 0)
(8.39046 0 0)
(8.38989 0 0)
(8.38933 0 0)
(8.38876 0 0)
(8.38818 0 0)
(8.3876 0 0)
(8.38702 0 0)
(8.38643 0 0)
(8.38584 0 0)
(8.38524 0 0)
(8.38463 0 0)
(8.38403 0 0)
(8.38341 0 0)
(8.38279 0 0)
(8.38217 0 0)
(8.38154 0 0)
(8.38091 0 0)
(8.38027 0 0)
(8.37962 0 0)
(8.37897 0 0)
(8.37832 0 0)
(8.37766 0 0)
(8.37699 0 0)
(8.37632 0 0)
(8.37564 0 0)
(8.37496 0 0)
(8.37427 0 0)
(8.37357 0 0)
(8.37287 0 0)
(8.37217 0 0)
(8.37146 0 0)
(8.37074 0 0)
(8.37002 0 0)
(8.36929 0 0)
(8.36855 0 0)
(8.36781 0 0)
(8.36706 0 0)
(8.36631 0 0)
(8.36555 0 0)
(8.36478 0 0)
(8.36401 0 0)
(8.36323 0 0)
(8.36244 0 0)
(8.36165 0 0)
(8.36085 0 0)
(8.36004 0 0)
(8.35923 0 0)
(8.35841 0 0)
(8.35759 0 0)
(8.35675 0 0)
(8.35591 0 0)
(8.35507 0 0)
(8.35421 0 0)
(8.35335 0 0)
(8.35248 0 0)
(8.35161 0 0)
(8.35072 0 0)
(8.34983 0 0)
(8.34893 0 0)
(8.34803 0 0)
(8.34711 0 0)
(8.34619 0 0)
(8.34526 0 0)
(8.34433 0 0)
(8.34338 0 0)
(8.34243 0 0)
(8.34147 0 0)
(8.3405 0 0)
(8.33952 0 0)
(8.33854 0 0)
(8.33754 0 0)
(8.33654 0 0)
(8.33553 0 0)
(8.33451 0 0)
(8.33348 0 0)
(8.33245 0 0)
(8.3314 0 0)
(8.33035 0 0)
(8.32928 0 0)
(8.32821 0 0)
(8.32713 0 0)
(8.32604 0 0)
(8.32494 0 0)
(8.32383 0 0)
(8.32271 0 0)
(8.32158 0 0)
(8.32044 0 0)
(8.31929 0 0)
(8.31813 0 0)
(8.31696 0 0)
(8.31578 0 0)
(8.31459 0 0)
(8.3134 0 0)
(8.31219 0 0)
(8.31097 0 0)
(8.30974 0 0)
(8.30849 0 0)
(8.30724 0 0)
(8.30598 0 0)
(8.30471 0 0)
(8.30342 0 0)
(8.30212 0 0)
(8.30082 0 0)
(8.2995 0 0)
(8.29817 0 0)
(8.29683 0 0)
(8.29547 0 0)
(8.29411 0 0)
(8.29273 0 0)
(8.29134 0 0)
(8.28994 0 0)
(8.28852 0 0)
(8.2871 0 0)
(8.28566 0 0)
(8.28421 0 0)
(8.28274 0 0)
(8.28126 0 0)
(8.27977 0 0)
(8.27827 0 0)
(8.27675 0 0)
(8.27522 0 0)
(8.27368 0 0)
(8.27212 0 0)
(8.27054 0 0)
(8.26896 0 0)
(8.26736 0 0)
(8.26574 0 0)
(8.26411 0 0)
(8.26247 0 0)
(8.26081 0 0)
(8.25914 0 0)
(8.25745 0 0)
(8.25575 0 0)
(8.25403 0 0)
(8.25229 0 0)
(8.25054 0 0)
(8.24877 0 0)
(8.24699 0 0)
(8.24519 0 0)
(8.24338 0 0)
(8.24155 0 0)
(8.2397 0 0)
(8.23783 0 0)
(8.23595 0 0)
(8.23405 0 0)
(8.23214 0 0)
(8.2302 0 0)
(8.22825 0 0)
(8.22628 0 0)
(8.22429 0 0)
(8.22228 0 0)
(8.22026 0 0)
(8.21821 0 0)
(8.21615 0 0)
(8.21407 0 0)
(8.21197 0 0)
(8.20985 0 0)
(8.2077 0 0)
(8.20554 0 0)
(8.20336 0 0)
(8.20116 0 0)
(8.19894 0 0)
(8.19669 0 0)
(8.19443 0 0)
(8.19214 0 0)
(8.18983 0 0)
(8.1875 0 0)
(8.18515 0 0)
(8.18278 0 0)
(8.18038 0 0)
(8.17796 0 0)
(8.17552 0 0)
(8.17305 0 0)
(6.4341 0 0)
(7.53029 0 0)
(8.10456 0 0)
(8.50824 0 0)
(8.82408 0 0)
(9.02684 0 0)
(9.02624 0 0)
(9.02564 0 0)
(9.02504 0 0)
(9.02443 0 0)
(9.02382 0 0)
(9.0232 0 0)
(9.02258 0 0)
(9.02195 0 0)
(9.02132 0 0)
(9.02068 0 0)
(9.02003 0 0)
(9.01938 0 0)
(9.01873 0 0)
(9.01807 0 0)
(9.0174 0 0)
(9.01673 0 0)
(9.01605 0 0)
(9.01537 0 0)
(9.01468 0 0)
(9.01399 0 0)
(9.01329 0 0)
(9.01259 0 0)
(9.01188 0 0)
(9.01116 0 0)
(9.01044 0 0)
(9.00971 0 0)
(9.00897 0 0)
(9.00823 0 0)
(9.00749 0 0)
(9.00673 0 0)
(9.00597 0 0)
(9.00521 0 0)
(9.00444 0 0)
(9.00366 0 0)
(9.00287 0 0)
(9.00208 0 0)
(9.00128 0 0)
(9.00048 0 0)
(8.99967 0 0)
(8.99885 0 0)
(8.99803 0 0)
(8.99719 0 0)
(8.99636 0 0)
(8.99551 0 0)
(8.99466 0 0)
(8.9938 0 0)
(8.99293 0 0)
(8.99206 0 0)
(8.99118 0 0)
(8.99029 0 0)
(8.98939 0 0)
(8.98849 0 0)
(8.98758 0 0)
(8.98666 0 0)
(8.98573 0 0)
(8.9848 0 0)
(8.98385 0 0)
(8.9829 0 0)
(8.98195 0 0)
(8.98098 0 0)
(8.98 0 0)
(8.97902 0 0)
(8.97803 0 0)
(8.97703 0 0)
(8.97602 0 0)
(8.97501 0 0)
(8.97398 0 0)
(8.97295 0 0)
(8.97191 0 0)
(8.97086 0 0)
(8.9698 0 0)
(8.96873 0 0)
(8.96765 0 0)
(8.96656 0 0)
(8.96546 0 0)
(8.96436 0 0)
(8.96324 0 0)
(8.96212 0 0)
(8.96098 0 0)
(8.95984 0 0)
(8.95869 0 0)
(8.95752 0 0)
(8.95635 0 0)
(8.95516 0 0)
(8.95397 0 0)
(8.95277 0 0)
(8.95155 0 0)
(8.95033 0 0)
(8.94909 0 0)
(8.94784 0 0)
(8.94659 0 0)
(8.94532 0 0)
(8.94404 0 0)
(8.94275 0 0)
(8.94145 0 0)
(8.94014 0 0)
(8.93881 0 0)
(8.93748 0 0)
(8.93613 0 0)
(8.93477 0 0)
(8.9334 0 0)
(8.93202 0 0)
(8.93063 0 0)
(8.92922 0 0)
(8.9278 0 0)
(8.92637 0 0)
(8.92493 0 0)
(8.92347 0 0)
(8.922 0 0)
(8.92052 0 0)
(8.91903 0 0)
(8.91752 0 0)
(8.916 0 0)
(8.91446 0 0)
(8.91291 0 0)
(8.91135 0 0)
(8.90978 0 0)
(8.90819 0 0)
(8.90658 0 0)
(8.90496 0 0)
(8.90333 0 0)
(8.90168 0 0)
(8.90002 0 0)
(8.89835 0 0)
(8.89666 0 0)
(8.89495 0 0)
(8.89323 0 0)
(8.89149 0 0)
(8.88974 0 0)
(8.88797 0 0)
(8.88619 0 0)
(8.88439 0 0)
(8.88257 0 0)
(8.88074 0 0)
(8.87889 0 0)
(8.87702 0 0)
(8.87514 0 0)
(8.87324 0 0)
(8.87132 0 0)
(8.86939 0 0)
(8.86743 0 0)
(8.86546 0 0)
(8.86348 0 0)
(8.86147 0 0)
(8.85944 0 0)
(8.8574 0 0)
(8.85534 0 0)
(8.85326 0 0)
(8.85116 0 0)
(8.84904 0 0)
(8.8469 0 0)
(8.84474 0 0)
(8.84256 0 0)
(8.84036 0 0)
(8.83814 0 0)
(8.8359 0 0)
(8.83364 0 0)
(8.83136 0 0)
(8.82906 0 0)
(8.82673 0 0)
(8.82439 0 0)
(8.82202 0 0)
(8.81963 0 0)
(8.81721 0 0)
(8.81478 0 0)
(8.81232 0 0)
(8.80983 0 0)
(8.80733 0 0)
(8.8048 0 0)
(8.80224 0 0)
(8.79967 0 0)
(8.79706 0 0)
(8.79444 0 0)
(8.79178 0 0)
(6.4341 0 0)
(7.53029 0 0)
(8.10457 0 0)
(8.50824 0 0)
(8.82409 0 0)
(9.08572 0 0)
(9.31031 0 0)
(9.47008 0 0)
(9.46945 0 0)
(9.46881 0 0)
(9.46817 0 0)
(9.46752 0 0)
(9.46686 0 0)
(9.4662 0 0)
(9.46554 0 0)
(9.46487 0 0)
(9.46419 0 0)
(9.46351 0 0)
(9.46282 0 0)
(9.46213 0 0)
(9.46143 0 0)
(9.46073 0 0)
(9.46002 0 0)
(9.4593 0 0)
(9.45858 0 0)
(9.45785 0 0)
(9.45712 0 0)
(9.45638 0 0)
(9.45563 0 0)
(9.45488 0 0)
(9.45412 0 0)
(9.45336 0 0)
(9.45259 0 0)
(9.45181 0 0)
(9.45103 0 0)
(9.45024 0 0)
(9.44944 0 0)
(9.44864 0 0)
(9.44783 0 0)
(9.44701 0 0)
(9.44619 0 0)
(9.44536 0 0)
(9.44452 0 0)
(9.44368 0 0)
(9.44282 0 0)
(9.44197 0 0)
(9.4411 0 0)
(9.44023 0 0)
(9.43935 0 0)
(9.43846 0 0)
(9.43757 0 0)
(9.43667 0 0)
(9.43576 0 0)
(9.43484 0 0)
(9.43391 0 0)
(9.43298 0 0)
(9.43204 0 0)
(9.43109 0 0)
(9.43014 0 0)
(9.42917 0 0)
(9.4282 0 0)
(9.42722 0 0)
(9.42623 0 0)
(9.42523 0 0)
(9.42423 0 0)
(9.42322 0 0)
(9.42219 0 0)
(9.42116 0 0)
(9.42012 0 0)
(9.41907 0 0)
(9.41802 0 0)
(9.41695 0 0)
(9.41587 0 0)
(9.41479 0 0)
(9.4137 0 0)
(9.41259 0 0)
(9.41148 0 0)
(9.41036 0 0)
(9.40923 0 0)
(9.40809 0 0)
(9.40694 0 0)
(9.40578 0 0)
(9.40461 0 0)
(9.40343 0 0)
(9.40224 0 0)
(9.40103 0 0)
(9.39982 0 0)
(9.3986 0 0)
(9.39737 0 0)
(9.39613 0 0)
(9.39488 0 0)
(9.39361 0 0)
(9.39234 0 0)
(9.39105 0 0)
(9.38976 0 0)
(9.38845 0 0)
(9.38713 0 0)
(9.3858 0 0)
(9.38446 0 0)
(9.3831 0 0)
(9.38174 0 0)
(9.38036 0 0)
(9.37897 0 0)
(9.37757 0 0)
(9.37616 0 0)
(9.37473 0 0)
(9.3733 0 0)
(9.37185 0 0)
(9.37038 0 0)
(9.36891 0 0)
(9.36742 0 0)
(9.36592 0 0)
(9.3644 0 0)
(9.36288 0 0)
(9.36133 0 0)
(9.35978 0 0)
(9.35821 0 0)
(9.35663 0 0)
(9.35503 0 0)
(9.35342 0 0)
(9.3518 0 0)
(9.35016 0 0)
(9.34851 0 0)
(9.34684 0 0)
(9.34515 0 0)
(9.34346 0 0)
(9.34174 0 0)
(9.34002 0 0)
(9.33827 0 0)
(9.33651 0 0)
(9.33474 0 0)
(9.33295 0 0)
(9.33114 0 0)
(9.32932 0 0)
(9.32748 0 0)
(9.32563 0 0)
(9.32375 0 0)
(9.32187 0 0)
(9.31996 0 0)
(9.31804 0 0)
(9.3161 0 0)
(9.31414 0 0)
(9.31216 0 0)
(9.31017 0 0)
(9.30816 0 0)
(9.30613 0 0)
(9.30408 0 0)
(9.30201 0 0)
(9.29993 0 0)
(9.29782 0 0)
(9.2957 0 0)
(9.29355 0 0)
(9.29139 0 0)
(9.28921 0 0)
(9.287 0 0)
(9.28478 0 0)
(9.28253 0 0)
(9.28027 0 0)
(9.27798 0 0)
(9.27568 0 0)
(9.27335 0 0)
(9.271 0 0)
(9.26862 0 0)
(9.26623 0 0)
(9.26381 0 0)
(9.26137 0 0)
(9.25891 0 0)
(9.25643 0 0)
(9.25392 0 0)
(9.25139 0 0)
(9.24883 0 0)
(9.24625 0 0)
(9.24364 0 0)
(9.24101 0 0)
(9.23836 0 0)
(9.23568 0 0)
(9.23297 0 0)
(9.23024 0 0)
(9.22749 0 0)
(9.2247 0 0)
(6.4341 0 0)
(7.53029 0 0)
(8.10457 0 0)
(8.50825 0 0)
(8.82409 0 0)
(9.08572 0 0)
(9.31031 0 0)
(9.50788 0 0)
(9.68481 0 0)
(9.81493 0 0)
(9.81427 0 0)
(9.8136 0 0)
(9.81292 0 0)
(9.81223 0 0)
(9.81154 0 0)
(9.81085 0 0)
(9.81015 0 0)
(9.80944 0 0)
(9.80873 0 0)
(9.80801 0 0)
(9.80729 0 0)
(9.80656 0 0)
(9.80582 0 0)
(9.80508 0 0)
(9.80433 0 0)
(9.80358 0 0)
(9.80282 0 0)
(9.80205 0 0)
(9.80128 0 0)
(9.8005 0 0)
(9.79971 0 0)
(9.79892 0 0)
(9.79812 0 0)
(9.79731 0 0)
(9.7965 0 0)
(9.79568 0 0)
(9.79486 0 0)
(9.79403 0 0)
(9.79319 0 0)
(9.79234 0 0)
(9.79149 0 0)
(9.79063 0 0)
(9.78976 0 0)
(9.78888 0 0)
(9.788 0 0)
(9.78711 0 0)
(9.78621 0 0)
(9.78531 0 0)
(9.7844 0 0)
(9.78348 0 0)
(9.78255 0 0)
(9.78162 0 0)
(9.78067 0 0)
(9.77972 0 0)
(9.77876 0 0)
(9.7778 0 0)
(9.77682 0 0)
(9.77584 0 0)
(9.77485 0 0)
(9.77385 0 0)
(9.77284 0 0)
(9.77183 0 0)
(9.7708 0 0)
(9.76977 0 0)
(9.76873 0 0)
(9.76767 0 0)
(9.76661 0 0)
(9.76555 0 0)
(9.76447 0 0)
(9.76338 0 0)
(9.76229 0 0)
(9.76118 0 0)
(9.76007 0 0)
(9.75894 0 0)
(9.75781 0 0)
(9.75666 0 0)
(9.75551 0 0)
(9.75435 0 0)
(9.75318 0 0)
(9.75199 0 0)
(9.7508 0 0)
(9.7496 0 0)
(9.74838 0 0)
(9.74716 0 0)
(9.74593 0 0)
(9.74468 0 0)
(9.74343 0 0)
(9.74216 0 0)
(9.74089 0 0)
(9.7396 0 0)
(9.7383 0 0)
(9.73699 0 0)
(9.73567 0 0)
(9.73434 0 0)
(9.73299 0 0)
(9.73164 0 0)
(9.73027 0 0)
(9.72889 0 0)
(9.7275 0 0)
(9.7261 0 0)
(9.72468 0 0)
(9.72326 0 0)
(9.72182 0 0)
(9.72036 0 0)
(9.7189 0 0)
(9.71742 0 0)
(9.71593 0 0)
(9.71443 0 0)
(9.71291 0 0)
(9.71138 0 0)
(9.70984 0 0)
(9.70828 0 0)
(9.70671 0 0)
(9.70513 0 0)
(9.70353 0 0)
(9.70192 0 0)
(9.70029 0 0)
(9.69865 0 0)
(9.697 0 0)
(9.69533 0 0)
(9.69365 0 0)
(9.69195 0 0)
(9.69023 0 0)
(9.68851 0 0)
(9.68676 0 0)
(9.685 0 0)
(9.68323 0 0)
(9.68143 0 0)
(9.67963 0 0)
(9.6778 0 0)
(9.67597 0 0)
(9.67411 0 0)
(9.67224 0 0)
(9.67035 0 0)
(9.66844 0 0)
(9.66652 0 0)
(9.66458 0 0)
(9.66262 0 0)
(9.66064 0 0)
(9.65865 0 0)
(9.65664 0 0)
(9.65461 0 0)
(9.65256 0 0)
(9.6505 0 0)
(9.64841 0 0)
(9.64631 0 0)
(9.64418 0 0)
(9.64204 0 0)
(9.63988 0 0)
(9.6377 0 0)
(9.63549 0 0)
(9.63327 0 0)
(9.63103 0 0)
(9.62877 0 0)
(9.62648 0 0)
(9.62418 0 0)
(9.62185 0 0)
(9.6195 0 0)
(9.61713 0 0)
(9.61474 0 0)
(9.61233 0 0)
(9.60989 0 0)
(9.60743 0 0)
(9.60495 0 0)
(9.60245 0 0)
(9.59992 0 0)
(9.59736 0 0)
(9.59479 0 0)
(9.59219 0 0)
(9.58956 0 0)
(9.58691 0 0)
(9.58424 0 0)
(9.58154 0 0)
(9.57881 0 0)
(9.57606 0 0)
(9.57328 0 0)
(9.57048 0 0)
(9.56765 0 0)
(9.56479 0 0)
(9.5619 0 0)
(6.4341 0 0)
(7.5303 0 0)
(8.10458 0 0)
(8.50825 0 0)
(8.8241 0 0)
(9.08573 0 0)
(9.31032 0 0)
(9.50789 0 0)
(9.68482 0 0)
(9.84542 0 0)
(9.99278 0 0)
(10 0 0)
(10 0 0)
(10 0 0)
(10 0 0)
(10 0 0)
(10 0 0)
(10 0 0)
(10 0 0)
(10 0 0)
(10 0 0)
(10 0 0)
(10 0 0)
(10 0 0)
(10 0 0)
(10 0 0)
(10 0 0)
(10 0 0)
(10 0 0)
(10 0 0)
(10 0 0)
(10 0 0)
(10 0 0)
(10 0 0)
(10 0 0)
(10 0 0)
(10 0 0)
(10 0 0)
(10 0 0)
(10 0 0)
(10 0 0)
(10 0 0)
(10 0 0)
(10 0 0)
(10 0 0)
(10 0 0)
(10 0 0)
(10 0 0)
(10 0 0)
(10 0 0)
(10 0 0)
(10 0 0)
(10 0 0)
(10 0 0)
(10 0 0)
(10 0 0)
(10 0 0)
(10 0 0)
(10 0 0)
(10 0 0)
(10 0 0)
(10 0 0)
(10 0 0)
(10 0 0)
(10 0 0)
(10 0 0)
(10 0 0)
(10 0 0)
(10 0 0)
(10 0 0)
(10 0 0)
(10 0 0)
(10 0 0)
(10 0 0)
(10 0 0)
(10 0 0)
(10 0 0)
(10 0 0)
(10 0 0)
(10 0 0)
(10 0 0)
(10 0 0)
(10 0 0)
(10 0 0)
(10 0 0)
(10 0 0)
(10 0 0)
(10 0 0)
(10 0 0)
(10 0 0)
(10 0 0)
(10 0 0)
(10 0 0)
(10 0 0)
(10 0 0)
(10 0 0)
(10 0 0)
(10 0 0)
(10 0 0)
(10 0 0)
(10 0 0)
(10 0 0)
(10 0 0)
(10 0 0)
(10 0 0)
(10 0 0)
(9.99849 0 0)
(9.99694 0 0)
(9.99538 0 0)
(9.99381 0 0)
(9.99222 0 0)
(9.99062 0 0)
(9.989 0 0)
(9.98737 0 0)
(9.98573 0 0)
(9.98407 0 0)
(9.9824 0 0)
(9.98071 0 0)
(9.97901 0 0)
(9.97729 0 0)
(9.97556 0 0)
(9.97381 0 0)
(9.97205 0 0)
(9.97027 0 0)
(9.96847 0 0)
(9.96666 0 0)
(9.96483 0 0)
(9.96299 0 0)
(9.96113 0 0)
(9.95926 0 0)
(9.95736 0 0)
(9.95545 0 0)
(9.95353 0 0)
(9.95158 0 0)
(9.94962 0 0)
(9.94764 0 0)
(9.94564 0 0)
(9.94363 0 0)
(9.9416 0 0)
(9.93954 0 0)
(9.93747 0 0)
(9.93539 0 0)
(9.93328 0 0)
(9.93115 0 0)
(9.92901 0 0)
(9.92684 0 0)
(9.92466 0 0)
(9.92245 0 0)
(9.92023 0 0)
(9.91798 0 0)
(9.91571 0 0)
(9.91343 0 0)
(9.91112 0 0)
(9.90879 0 0)
(9.90644 0 0)
(9.90407 0 0)
(9.90167 0 0)
(9.89926 0 0)
(9.89682 0 0)
(9.89436 0 0)
(9.89187 0 0)
(9.88937 0 0)
(9.88684 0 0)
(9.88428 0 0)
(9.8817 0 0)
(9.8791 0 0)
(9.87648 0 0)
(9.87383 0 0)
(9.87115 0 0)
(9.86845 0 0)
(9.86572 0 0)
(9.86297 0 0)
(9.86019 0 0)
(9.85739 0 0)
(9.85455 0 0)
(9.8517 0 0)
(9.84881 0 0)
(9.8459 0 0)
(9.84295 0 0)
(9.83998 0 0)
(6.4341 0 0)
(7.5303 0 0)
(8.10458 0 0)
(8.50826 0 0)
(8.8241 0 0)
(9.08574 0 0)
(9.31033 0 0)
(9.5079 0 0)
(9.68482 0 0)
(9.84543 0 0)
(9.99279 0 0)
(10 0 0)
(10 0 0)
(10 0 0)
(10 0 0)
(10 0 0)
(10 0 0)
(10 0 0)
(10 0 0)
(10 0 0)
(10 0 0)
(10 0 0)
(10 0 0)
(10 0 0)
(10 0 0)
(10 0 0)
(10 0 0)
(10 0 0)
(10 0 0)
(10 0 0)
(10 0 0)
(10 0 0)
(10 0 0)
(10 0 0)
(10 0 0)
(10 0 0)
(10 0 0)
(10 0 0)
(10 0 0)
(10 0 0)
(10 0 0)
(10 0 0)
(10 0 0)
(10 0 0)
(10 0 0)
(10 0 0)
(10 0 0)
(10 0 0)
(10 0 0)
(10 0 0)
(10 0 0)
(10 0 0)
(10 0 0)
(10 0 0)
(10 0 0)
(10 0 0)
(10 0 0)
(10 0 0)
(10 0 0)
(10 0 0)
(10 0 0)
(10 0 0)
(10 0 0)
(10 0 0)
(10 0 0)
(10 0 0)
(10 0 0)
(10 0 0)
(10 0 0)
(10 0 0)
(10 0 0)
(10 0 0)
(10 0 0)
(10 0 0)
(10 0 0)
(10 0 0)
(10 0 0)
(10 0 0)
(10 0 0)
(10 0 0)
(10 0 0)
(10 0 0)
(10 0 0)
(10 0 0)
(10 0 0)
(10 0 0)
(10 0 0)
(10 0 0)
(10 0 0)
(10 0 0)
(10 0 0)
(10 0 0)
(10 0 0)
(10 0 0)
(10 0 0)
(10 0 0)
(10 0 0)
(10 0 0)
(10 0 0)
(10 0 0)
(10 0 0)
(10 0 0)
(10 0 0)
(10 0 0)
(10 0 0)
(10 0 0)
(10 0 0)
(10 0 0)
(10 0 0)
(10 0 0)
(10 0 0)
(10 0 0)
(10 0 0)
(10 0 0)
(10 0 0)
(10 0 0)
(10 0 0)
(10 0 0)
(10 0 0)
(10 0 0)
(10 0 0)
(10 0 0)
(10 0 0)
(10 0 0)
(10 0 0)
(10 0 0)
(10 0 0)
(10 0 0)
(10 0 0)
(10 0 0)
(10 0 0)
(10 0 0)
(10 0 0)
(10 0 0)
(10 0 0)
(10 0 0)
(10 0 0)
(10 0 0)
(10 0 0)
(10 0 0)
(10 0 0)
(10 0 0)
(10 0 0)
(10 0 0)
(10 0 0)
(10 0 0)
(10 0 0)
(10 0 0)
(10 0 0)
(10 0 0)
(10 0 0)
(10 0 0)
(10 0 0)
(10 0 0)
(10 0 0)
(10 0 0)
(10 0 0)
(10 0 0)
(10 0 0)
(10 0 0)
(10 0 0)
(10 0 0)
(10 0 0)
(10 0 0)
(10 0 0)
(10 0 0)
(10 0 0)
(10 0 0)
(10 0 0)
(10 0 0)
(10 0 0)
(10 0 0)
(10 0 0)
(10 0 0)
(10 0 0)
(10 0 0)
(10 0 0)
(10 0 0)
(10 0 0)
(10 0 0)
(6.4341 0 0)
(7.53031 0 0)
(8.10459 0 0)
(8.50827 0 0)
(8.82411 0 0)
(9.08574 0 0)
(9.31034 0 0)
(9.50791 0 0)
(9.68483 0 0)
(9.84544 0 0)
(9.9928 0 0)
(10 0 0)
(10 0 0)
(10 0 0)
(10 0 0)
(10 0 0)
(10 0 0)
(10 0 0)
(10 0 0)
(10 0 0)
(10 0 0)
(10 0 0)
(10 0 0)
(10 0 0)
(10 0 0)
(10 0 0)
(10 0 0)
(10 0 0)
(10 0 0)
(10 0 0)
(10 0 0)
(10 0 0)
(10 0 0)
(10 0 0)
(10 0 0)
(10 0 0)
(10 0 0)
(10 0 0)
(10 0 0)
(10 0 0)
(10 0 0)
(10 0 0)
(10 0 0)
(10 0 0)
(10 0 0)
(10 0 0)
(10 0 0)
(10 0 0)
(10 0 0)
(10 0 0)
(10 0 0)
(10 0 0)
(10 0 0)
(10 0 0)
(10 0 0)
(10 0 0)
(10 0 0)
(10 0 0)
(10 0 0)
(10 0 0)
(10 0 0)
(10 0 0)
(10 0 0)
(10 0 0)
(10 0 0)
(10 0 0)
(10 0 0)
(10 0 0)
(10 0 0)
(10 0 0)
(10 0 0)
(10 0 0)
(10 0 0)
(10 0 0)
(10 0 0)
(10 0 0)
(10 0 0)
(10 0 0)
(10 0 0)
(10 0 0)
(10 0 0)
(10 0 0)
(10 0 0)
(10 0 0)
(10 0 0)
(10 0 0)
(10 0 0)
(10 0 0)
(10 0 0)
(10 0 0)
(10 0 0)
(10 0 0)
(10 0 0)
(10 0 0)
(10 0 0)
(10 0 0)
(10 0 0)
(10 0 0)
(10 0 0)
(10 0 0)
(10 0 0)
(10 0 0)
(10 0 0)
(10 0 0)
(10 0 0)
(10 0 0)
(10 0 0)
(10 0 0)
(10 0 0)
(10 0 0)
(10 0 0)
(10 0 0)
(10 0 0)
(10 0 0)
(10 0 0)
(10 0 0)
(10 0 0)
(10 0 0)
(10 0 0)
(10 0 0)
(10 0 0)
(10 0 0)
(10 0 0)
(10 0 0)
(10 0 0)
(10 0 0)
(10 0 0)
(10 0 0)
(10 0 0)
(10 0 0)
(10 0 0)
(10 0 0)
(10 0 0)
(10 0 0)
(10 0 0)
(10 0 0)
(10 0 0)
(10 0 0)
(10 0 0)
(10 0 0)
(10 0 0)
(10 0 0)
(10 0 0)
(10 0 0)
(10 0 0)
(10 0 0)
(10 0 0)
(10 0 0)
(10 0 0)
(10 0 0)
(10 0 0)
(10 0 0)
(10 0 0)
(10 0 0)
(10 0 0)
(10 0 0)
(10 0 0)
(10 0 0)
(10 0 0)
(10 0 0)
(10 0 0)
(10 0 0)
(10 0 0)
(10 0 0)
(10 0 0)
(10 0 0)
(10 0 0)
(10 0 0)
(10 0 0)
(10 0 0)
(10 0 0)
(10 0 0)
(10 0 0)
(10 0 0)
(10 0 0)
(10 0 0)
(10 0 0)
(10 0 0)
(10 0 0)
(10 0 0)
(6.4341 0 0)
(7.53032 0 0)
(8.1046 0 0)
(8.50828 0 0)
(8.82412 0 0)
(9.08575 0 0)
(9.31035 0 0)
(9.50792 0 0)
(9.68484 0 0)
(9.84545 0 0)
(9.99281 0 0)
(10 0 0)
(10 0 0)
(10 0 0)
(10 0 0)
(10 0 0)
(10 0 0)
(10 0 0)
(10 0 0)
(10 0 0)
(10 0 0)
(10 0 0)
(10 0 0)
(10 0 0)
(10 0 0)
(10 0 0)
(10 0 0)
(10 0 0)
(10 0 0)
(10 0 0)
(10 0 0)
(10 0 0)
(10 0 0)
(10 0 0)
(10 0 0)
(10 0 0)
(10 0 0)
(10 0 0)
(10 0 0)
(10 0 0)
(10 0 0)
(10 0 0)
(10 0 0)
(10 0 0)
(10 0 0)
(10 0 0)
(10 0 0)
(10 0 0)
(10 0 0)
(10 0 0)
(10 0 0)
(10 0 0)
(10 0 0)
(10 0 0)
(10 0 0)
(10 0 0)
(10 0 0)
(10 0 0)
(10 0 0)
(10 0 0)
(10 0 0)
(10 0 0)
(10 0 0)
(10 0 0)
(10 0 0)
(10 0 0)
(10 0 0)
(10 0 0)
(10 0 0)
(10 0 0)
(10 0 0)
(10 0 0)
(10 0 0)
(10 0 0)
(10 0 0)
(10 0 0)
(10 0 0)
(10 0 0)
(10 0 0)
(10 0 0)
(10 0 0)
(10 0 0)
(10 0 0)
(10 0 0)
(10 0 0)
(10 0 0)
(10 0 0)
(10 0 0)
(10 0 0)
(10 0 0)
(10 0 0)
(10 0 0)
(10 0 0)
(10 0 0)
(10 0 0)
(10 0 0)
(10 0 0)
(10 0 0)
(10 0 0)
(10 0 0)
(10 0 0)
(10 0 0)
(10 0 0)
(10 0 0)
(10 0 0)
(10 0 0)
(10 0 0)
(10 0 0)
(10 0 0)
(10 0 0)
(10 0 0)
(10 0 0)
(10 0 0)
(10 0 0)
(10 0 0)
(10 0 0)
(10 0 0)
(10 0 0)
(10 0 0)
(10 0 0)
(10 0 0)
(10 0 0)
(10 0 0)
(10 0 0)
(10 0 0)
(10 0 0)
(10 0 0)
(10 0 0)
(10 0 0)
(10 0 0)
(10 0 0)
(10 0 0)
(10 0 0)
(10 0 0)
(10 0 0)
(10 0 0)
(10 0 0)
(10 0 0)
(10 0 0)
(10 0 0)
(10 0 0)
(10 0 0)
(10 0 0)
(10 0 0)
(10 0 0)
(10 0 0)
(10 0 0)
(10 0 0)
(10 0 0)
(10 0 0)
(10 0 0)
(10 0 0)
(10 0 0)
(10 0 0)
(10 0 0)
(10 0 0)
(10 0 0)
(10 0 0)
(10 0 0)
(10 0 0)
(10 0 0)
(10 0 0)
(10 0 0)
(10 0 0)
(10 0 0)
(10 0 0)
(10 0 0)
(10 0 0)
(10 0 0)
(10 0 0)
(10 0 0)
(10 0 0)
(10 0 0)
(10 0 0)
(10 0 0)
(10 0 0)
(10 0 0)
(10 0 0)
(10 0 0)
(10 0 0)
(6.4341 0 0)
(7.53033 0 0)
(8.10461 0 0)
(8.50829 0 0)
(8.82413 0 0)
(9.08576 0 0)
(9.31036 0 0)
(9.50793 0 0)
(9.68485 0 0)
(9.84546 0 0)
(9.99282 0 0)
(10 0 0)
(10 0 0)
(10 0 0)
(10 0 0)
(10 0 0)
(10 0 0)
(10 0 0)
(10 0 0)
(10 0 0)
(10 0 0)
(10 0 0)
(10 0 0)
(10 0 0)
(10 0 0)
(10 0 0)
(10 0 0)
(10 0 0)
(10 0 0)
(10 0 0)
(10 0 0)
(10 0 0)
(10 0 0)
(10 0 0)
(10 0 0)
(10 0 0)
(10 0 0)
(10 0 0)
(10 0 0)
(10 0 0)
(10 0 0)
(10 0 0)
(10 0 0)
(10 0 0)
(10 0 0)
(10 0 0)
(10 0 0)
(10 0 0)
(10 0 0)
(10 0 0)
(10 0 0)
(10 0 0)
(10 0 0)
(10 0 0)
(10 0 0)
(10 0 0)
(10 0 0)
(10 0 0)
(10 0 0)
(10 0 0)
(10 0 0)
(10 0 0)
(10 0 0)
(10 0 0)
(10 0 0)
(10 0 0)
(10 0 0)
(10 0 0)
(10 0 0)
(10 0 0)
(10 0 0)
(10 0 0)
(10 0 0)
(10 0 0)
(10 0 0)
(10 0 0)
(10 0 0)
(10 0 0)
(10 0 0)
(10 0 0)
(10 0 0)
(10 0 0)
(10 0 0)
(10 0 0)
(10 0 0)
(10 0 0)
(10 0 0)
(10 0 0)
(10 0 0)
(10 0 0)
(10 0 0)
(10 0 0)
(10 0 0)
(10 0 0)
(10 0 0)
(10 0 0)
(10 0 0)
(10 0 0)
(10 0 0)
(10 0 0)
(10 0 0)
(10 0 0)
(10 0 0)
(10 0 0)
(10 0 0)
(10 0 0)
(10 0 0)
(10 0 0)
(10 0 0)
(10 0 0)
(10 0 0)
(10 0 0)
(10 0 0)
(10 0 0)
(10 0 0)
(10 0 0)
(10 0 0)
(10 0 0)
(10 0 0)
(10 0 0)
(10 0 0)
(10 0 0)
(10 0 0)
(10 0 0)
(10 0 0)
(10 0 0)
(10 0 0)
(10 0 0)
(10 0 0)
(10 0 0)
(10 0 0)
(10 0 0)
(10 0 0)
(10 0 0)
(10 0 0)
(10 0 0)
(10 0 0)
(10 0 0)
(10 0 0)
(10 0 0)
(10 0 0)
(10 0 0)
(10 0 0)
(10 0 0)
(10 0 0)
(10 0 0)
(10 0 0)
(10 0 0)
(10 0 0)
(10 0 0)
(10 0 0)
(10 0 0)
(10 0 0)
(10 0 0)
(10 0 0)
(10 0 0)
(10 0 0)
(10 0 0)
(10 0 0)
(10 0 0)
(10 0 0)
(10 0 0)
(10 0 0)
(10 0 0)
(10 0 0)
(10 0 0)
(10 0 0)
(10 0 0)
(10 0 0)
(10 0 0)
(10 0 0)
(10 0 0)
(10 0 0)
(10 0 0)
(10 0 0)
(10 0 0)
(10 0 0)
(10 0 0)
(10 0 0)
(10 0 0)
(6.4341 0 0)
(7.53034 0 0)
(8.10462 0 0)
(8.5083 0 0)
(8.82414 0 0)
(9.08577 0 0)
(9.31037 0 0)
(9.50794 0 0)
(9.68486 0 0)
(9.84547 0 0)
(9.99283 0 0)
(10 0 0)
(10 0 0)
(10 0 0)
(10 0 0)
(10 0 0)
(10 0 0)
(10 0 0)
(10 0 0)
(10 0 0)
(10 0 0)
(10 0 0)
(10 0 0)
(10 0 0)
(10 0 0)
(10 0 0)
(10 0 0)
(10 0 0)
(10 0 0)
(10 0 0)
(10 0 0)
(10 0 0)
(10 0 0)
(10 0 0)
(10 0 0)
(10 0 0)
(10 0 0)
(10 0 0)
(10 0 0)
(10 0 0)
(10 0 0)
(10 0 0)
(10 0 0)
(10 0 0)
(10 0 0)
(10 0 0)
(10 0 0)
(10 0 0)
(10 0 0)
(10 0 0)
(10 0 0)
(10 0 0)
(10 0 0)
(10 0 0)
(10 0 0)
(10 0 0)
(10 0 0)
(10 0 0)
(10 0 0)
(10 0 0)
(10 0 0)
(10 0 0)
(10 0 0)
(10 0 0)
(10 0 0)
(10 0 0)
(10 0 0)
(10 0 0)
(10 0 0)
(10 0 0)
(10 0 0)
(10 0 0)
(10 0 0)
(10 0 0)
(10 0 0)
(10 0 0)
(10 0 0)
(10 0 0)
(10 0 0)
(10 0 0)
(10 0 0)
(10 0 0)
(10 0 0)
(10 0 0)
(10 0 0)
(10 0 0)
(10 0 0)
(10 0 0)
(10 0 0)
(10 0 0)
(10 0 0)
(10 0 0)
(10 0 0)
(10 0 0)
(10 0 0)
(10 0 0)
(10 0 0)
(10 0 0)
(10 0 0)
(10 0 0)
(10 0 0)
(10 0 0)
(10 0 0)
(10 0 0)
(10 0 0)
(10 0 0)
(10 0 0)
(10 0 0)
(10 0 0)
(10 0 0)
(10 0 0)
(10 0 0)
(10 0 0)
(10 0 0)
(10 0 0)
(10 0 0)
(10 0 0)
(10 0 0)
(10 0 0)
(10 0 0)
(10 0 0)
(10 0 0)
(10 0 0)
(10 0 0)
(10 0 0)
(10 0 0)
(10 0 0)
(10 0 0)
(10 0 0)
(10 0 0)
(10 0 0)
(10 0 0)
(10 0 0)
(10 0 0)
(10 0 0)
(10 0 0)
(10 0 0)