/*--------------------------------*- C++ -*----------------------------------*\
| =========                 |                                                 |
| \\      /  F ield         | OpenFOAM: The Open Source CFD Toolbox           |
|  \\    /   O peration     | Version:  dev                                   |
|   \\  /    A nd           | Web:      www.OpenFOAM.org                      |
|    \\/     M anipulation  |                                                 |
\*---------------------------------------------------------------------------*/
FoamFile
{
    version     2.0;
    format      ascii;
    class       volScalarField;
    location    "0";
    object      p;
}
// * * * * * * * * * * * * * * * * * * * * * * * * * * * * * * * * * * * * * //

dimensions      [0 2 -2 0 0 0 0];

internalField   nonuniform List<scalar>
400
(
5.52402e-06
-0.00229538
-0.00774013
-0.0134457
-0.0182955
-0.0202942
-0.0178671
-0.010124
0.00412935
0.0232269
0.0023122
-8.56648e-06
-0.00431311
-0.00861915
-0.0121932
-0.0134505
-0.0110599
-0.0042145
0.00817294
0.0247006
0.00788852
0.00425942
-0.000230637
-0.00410498
-0.0070962
-0.0079743
-0.00569132
0.000416574
0.0113069
0.0257812
0.014126
0.00870618
0.00323272
-0.000947769
-0.00397238
-0.00482869
-0.0026946
0.0029497
0.0129493
0.02622
0.0202555
0.0127338
0.00578291
0.000844808
-0.00258855
-0.00363201
-0.00164603
0.00375017
0.0133077
0.0259998
0.0244929
0.0147236
0.00599413
1.7912e-06
-0.00408129
-0.00540459
-0.00345031
0.00204832
0.0117931
0.0247509
0.0249167
0.0127959
0.00213259
-0.0050374
-0.00982139
-0.0113316
-0.00911901
-0.00300128
0.00773874
0.0219993
0.0193824
0.0047426
-0.00795542
-0.0162944
-0.0216404
-0.0230221
-0.0200315
-0.0125544
0.000219103
0.0170553
0.00369386
-0.0139208
-0.0288595
-0.0382709
-0.0437922
-0.0443442
-0.0395825
-0.0294836
-0.0130469
0.00827599
-0.026299
-0.0473007
-0.0644576
-0.0744762
-0.0792818
-0.0777332
-0.0696678
-0.0552497
-0.0332117
-0.00530944
0.0448887
0.0642817
0.0788822
0.086761
0.0890699
0.0867819
0.0816334
0.0757444
0.0702744
0.0680518
0.04343
0.0602061
0.072888
0.0798553
0.0821584
0.0806706
0.0768525
0.0723898
0.0680566
0.0658278
0.0421893
0.0569264
0.0681388
0.0744007
0.076625
0.075532
0.0722957
0.068254
0.0637334
0.060242
0.0412959
0.0549012
0.0653298
0.0712155
0.0733369
0.0722633
0.0689564
0.0645632
0.0590318
0.0537776
0.0404811
0.0536513
0.0638535
0.069671
0.0717468
0.070496
0.0667206
0.0614853
0.0544032
0.0470424
0.0396289
0.0533146
0.0640878
0.0703465
0.0726098
0.0711437
0.0666534
0.0602356
0.0512306
0.0415506
0.0384883
0.0538857
0.0663017
0.073782
0.076738
0.0752775
0.0700537
0.0622904
0.0511071
0.0388851
0.0366467
0.0552771
0.0707953
0.0806772
0.0852285
0.0843488
0.0786403
0.0695238
0.0559293
0.0408022
0.0332112
0.0574489
0.078501
0.0929152
0.100851
0.101839
0.0963391
0.0860166
0.0696153
0.050776
0.0273838
0.0599073
0.0894946
0.111369
0.125449
0.130592
0.126844
0.116047
0.0967497
0.073356
-0.0766926
-0.10178
-0.120971
-0.13057
-0.132883
-0.126914
-0.113011
-0.0917737
-0.0616323
-0.0247479
-0.149366
-0.179286
-0.199682
-0.206748
-0.203452
-0.189499
-0.166393
-0.135559
-0.0951477
-0.0477641
-0.252602
-0.288755
-0.308157
-0.308064
-0.293054
-0.264902
-0.227429
-0.183361
-0.130477
-0.0716821
-0.386061
-0.429712
-0.442826
-0.427378
-0.391657
-0.341776
-0.285011
-0.225339
-0.159677
-0.0906935
-0.572464
-0.624085
-0.617383
-0.570168
-0.498588
-0.416408
-0.334779
-0.257685
-0.179905
-0.102847
-0.8514
-0.902235
-0.841174
-0.731866
-0.602733
-0.47727
-0.367627
-0.274207
-0.1875
-0.106255
-1.30904
-1.3063
-1.11074
-0.892443
-0.682999
-0.50932
-0.375051
-0.271107
-0.181556
-0.101458
-2.09545
-1.86213
-1.39155
-1.01465
-0.715574
-0.502329
-0.355072
-0.250216
-0.165163
-0.0914828
-3.98058
-2.67121
-1.60811
-1.02895
-0.659379
-0.436806
-0.299319
-0.208349
-0.137781
-0.0773138
-7.18227
-3.1681
-1.41184
-0.806704
-0.48937
-0.319976
-0.220877
-0.157034
-0.107682
-0.064011
0.0183613
0.062252
0.104185
0.13766
0.162208
0.175468
0.176455
0.166864
0.144945
0.115841
0.00715669
0.0642276
0.121401
0.170432
0.21041
0.237123
0.247542
0.242376
0.21922
0.18352
-0.00455663
0.0664556
0.141069
0.209788
0.271553
0.319751
0.347733
0.353345
0.332383
0.288991
-0.0134122
0.0695562
0.160699
0.25044
0.338512
0.416292
0.472279
0.498663
0.487024
0.435713
-0.0182693
0.0738185
0.179548
0.2908
0.409869
0.527963
0.628572
0.694482
0.708557
0.650684
-0.0186749
0.0781401
0.194231
0.324561
0.476486
0.645392
0.813452
0.952028
1.03083
0.978783
-0.0160557
0.0800304
0.200014
0.342877
0.523215
0.747039
1.00593
1.26722
1.49769
1.51226
-0.0129511
0.0772526
0.193893
0.339561
0.536157
0.805429
1.16435
1.60059
2.13145
2.40382
-0.0116026
0.0661826
0.169925
0.303976
0.494184
0.778367
1.21817
1.87684
3.04386
4.45278
-0.0139577
0.0478743
0.132048
0.241219
0.396048
0.631083
1.02405
1.72146
3.62706
7.79002
)
;

boundaryField
{
    movingWall
    {
        type            zeroGradient;
    }
    fixedWalls
    {
        type            zeroGradient;
    }
    frontAndBack
    {
        type            empty;
    }
}


// ************************************************************************* //
