/*--------------------------------*- C++ -*----------------------------------*\
| =========                 |                                                 |
| \\      /  F ield         | OpenFOAM: The Open Source CFD Toolbox           |
|  \\    /   O peration     | Version:  dev                                   |
|   \\  /    A nd           | Web:      www.OpenFOAM.org                      |
|    \\/     M anipulation  |                                                 |
\*---------------------------------------------------------------------------*/
FoamFile
{
    version     2.0;
    format      ascii;
    class       volVectorField;
    location    "0";
    object      U;
}
// * * * * * * * * * * * * * * * * * * * * * * * * * * * * * * * * * * * * * //

dimensions      [0 1 -1 0 0 0 0];

internalField   nonuniform List<vector>
400
(
(7.77592e-05 -7.74314e-05 0)
(9.24465e-05 9.90119e-08 0)
(-0.000334275 0.000194835 0)
(-0.00129763 0.00036767 0)
(-0.00286343 0.000503916 0)
(-0.00494455 0.000576508 0)
(-0.00730369 0.000574836 0)
(-0.00964347 0.000498564 0)
(-0.0117102 0.00034179 0)
(-0.0128929 0.000126929 0)
(4.03178e-06 -9.46677e-05 0)
(-0.000327908 0.000334158 0)
(-0.00175804 0.00119198 0)
(-0.0042814 0.00196944 0)
(-0.00813354 0.00260203 0)
(-0.0131382 0.00294582 0)
(-0.0187679 0.00292999 0)
(-0.0243374 0.00254014 0)
(-0.0292504 0.00173976 0)
(-0.0320553 0.000642318 0)
(-0.000187657 0.000321548 0)
(-0.00119605 0.001768 0)
(-0.00416226 0.00411834 0)
(-0.00868815 0.00620737 0)
(-0.0151976 0.00791748 0)
(-0.0234033 0.00883917 0)
(-0.0324995 0.00874225 0)
(-0.041433 0.00755997 0)
(-0.0492814 0.00516822 0)
(-0.0537487 0.0019002 0)
(-0.000374981 0.00130006 0)
(-0.00207712 0.00438772 0)
(-0.0065967 0.00874463 0)
(-0.0130456 0.0124676 0)
(-0.021971 0.0154716 0)
(-0.0329447 0.0170375 0)
(-0.0449272 0.0167339 0)
(-0.0565905 0.014417 0)
(-0.0667836 0.00983357 0)
(-0.072574 0.00360938 0)
(-0.000562317 0.00300276 0)
(-0.0030009 0.00867184 0)
(-0.00921471 0.0158872 0)
(-0.0177622 0.0217751 0)
(-0.0292804 0.0264002 0)
(-0.0431487 0.0286797 0)
(-0.0580677 0.0279464 0)
(-0.0724456 0.023966 0)
(-0.0849373 0.0163056 0)
(-0.0920323 0.00598969 0)
(-0.000745322 0.00554788 0)
(-0.00393476 0.0149376 0)
(-0.0119241 0.0260455 0)
(-0.0226997 0.0347053 0)
(-0.0369662 0.0412738 0)
(-0.0538636 0.0442643 0)
(-0.0717978 0.042773 0)
(-0.0889114 0.0364906 0)
(-0.103696 0.0247665 0)
(-0.112119 0.00913805 0)
(-0.00093092 0.00901572 0)
(-0.00489502 0.0234069 0)
(-0.0147408 0.039587 0)
(-0.027864 0.0516962 0)
(-0.0450233 0.0605307 0)
(-0.0650795 0.0641651 0)
(-0.0861088 0.0614912 0)
(-0.105986 0.0521788 0)
(-0.123074 0.0353454 0)
(-0.132878 0.0131607 0)
(-0.00113149 0.0135389 0)
(-0.00593007 0.0344036 0)
(-0.017769 0.0570124 0)
(-0.0333952 0.0733311 0)
(-0.053601 0.0847548 0)
(-0.0769188 0.0888876 0)
(-0.101063 0.0844866 0)
(-0.123651 0.0713022 0)
(-0.142975 0.0482373 0)
(-0.154184 0.0182234 0)
(-0.00137666 0.0197259 0)
(-0.00717784 0.0493669 0)
(-0.0213632 0.0804986 0)
(-0.0398523 0.102161 0)
(-0.0634164 0.116597 0)
(-0.0901491 0.120906 0)
(-0.11735 0.113859 0)
(-0.142424 0.0954864 0)
(-0.163709 0.0645437 0)
(-0.176241 0.0249182 0)
(-0.00167131 0.0275121 0)
(-0.00864343 0.0680456 0)
(-0.0254591 0.109412 0)
(-0.0469581 0.137076 0)
(-0.073754 0.154396 0)
(-0.103351 0.15808 0)
(-0.132635 0.147237 0)
(-0.158961 0.12252 0)
(-0.180963 0.0827226 0)
(-0.194104 0.0328045 0)
(-0.0129112 -0.000119335 0)
(-0.0117458 -0.000341694 0)
(-0.00965701 -0.000507465 0)
(-0.00727209 -0.000587406 0)
(-0.00487018 -0.000585888 0)
(-0.00276981 -0.000505066 0)
(-0.00121437 -0.000360111 0)
(-0.00028002 -0.000182482 0)
(0.000111186 9.83519e-06 0)
(8.05099e-05 7.99212e-05 0)
(-0.0320881 -0.000613198 0)
(-0.0293109 -0.00174254 0)
(-0.0243486 -0.00258075 0)
(-0.0186865 -0.0029852 0)
(-0.0129706 -0.00298624 0)
(-0.00792763 -0.00260654 0)
(-0.00409668 -0.0019365 0)
(-0.00163233 -0.00113798 0)
(-0.000277587 -0.000287374 0)
(1.48683e-05 0.000113198 0)
(-0.053794 -0.00183057 0)
(-0.0493649 -0.00518068 0)
(-0.0414479 -0.00766944 0)
(-0.0323838 -0.00888855 0)
(-0.0231634 -0.00894624 0)
(-0.0148983 -0.00793054 0)
(-0.00841303 -0.00612144 0)
(-0.00396828 -0.0039738 0)
(-0.00111356 -0.00163457 0)
(-0.000168457 -0.000258733 0)
(-0.0726477 -0.00348138 0)
(-0.0669359 -0.00985102 0)
(-0.0566792 -0.0146085 0)
(-0.0448593 -0.0169956 0)
(-0.0327124 -0.017236 0)
(-0.0216433 -0.0155073 0)
(-0.0127244 -0.0123258 0)
(-0.00635936 -0.00849057 0)
(-0.00197162 -0.00414069 0)
(-0.000349533 -0.00117563 0)
(-0.0921806 -0.00573757 0)
(-0.0852815 -0.0162941 0)
(-0.0727743 -0.0242515 0)
(-0.0582179 -0.02837 0)
(-0.0430693 -0.0290283 0)
(-0.029029 -0.0265048 0)
(-0.0174576 -0.0215947 0)
(-0.00896428 -0.0155106 0)
(-0.00288066 -0.00827974 0)
(-0.000531706 -0.00279474 0)
(-0.11243 -0.00859305 0)
(-0.104468 -0.0246176 0)
(-0.0898004 -0.0368549 0)
(-0.0724982 -0.0434245 0)
(-0.0542274 -0.0448771 0)
(-0.0370072 -0.0415652 0)
(-0.0225483 -0.0345717 0)
(-0.0117312 -0.0255844 0)
(-0.00382139 -0.014395 0)
(-0.000713049 -0.00524164 0)
(-0.133488 -0.0119661 0)
(-0.124642 -0.03481 0)
(-0.107947 -0.0525464 0)
(-0.0879052 -0.0624586 0)
(-0.0663788 -0.0652461 0)
(-0.0457384 -0.0612557 0)
(-0.0281183 -0.0518284 0)
(-0.0147432 -0.0391919 0)
(-0.00483417 -0.0227762 0)
(-0.000905377 -0.00862174 0)
(-0.155281 -0.0157229 0)
(-0.14585 -0.0468335 0)
(-0.127414 -0.0714827 0)
(-0.104757 -0.0858727 0)
(-0.0799041 -0.0907717 0)
(-0.0555945 -0.0863676 0)
(-0.0344698 -0.0741786 0)
(-0.0182019 -0.0570393 0)
(-0.00600378 -0.0338816 0)
(-0.00112871 -0.0131219 0)
(-0.178091 -0.0198267 0)
(-0.168637 -0.06129 0)
(-0.149092 -0.0950265 0)
(-0.12421 -0.115775 0)
(-0.0960582 -0.124193 0)
(-0.0677259 -0.119995 0)
(-0.0424855 -0.10468 0)
(-0.0226591 -0.0817633 0)
(-0.00754204 -0.0494549 0)
(-0.0014282 -0.0194751 0)
(-0.19686 -0.0234072 0)
(-0.188422 -0.0762116 0)
(-0.169364 -0.120609 0)
(-0.143764 -0.149606 0)
(-0.113411 -0.163434 0)
(-0.0815219 -0.160811 0)
(-0.0520337 -0.142744 0)
(-0.0281718 -0.113303 0)
(-0.00951105 -0.0696929 0)
(-0.00182285 -0.0278255 0)
(-0.00205482 0.0373382 0)
(-0.0104895 0.0913204 0)
(-0.0303696 0.144655 0)
(-0.0549603 0.178528 0)
(-0.0844416 0.197835 0)
(-0.115493 0.199254 0)
(-0.14467 0.182865 0)
(-0.169646 0.150499 0)
(-0.189779 0.101307 0)
(-0.201899 0.0413711 0)
(-0.00256145 0.048775 0)
(-0.0128174 0.117872 0)
(-0.0361078 0.183428 0)
(-0.0633761 0.222155 0)
(-0.0939692 0.241063 0)
(-0.12357 0.237621 0)
(-0.148776 0.213829 0)
(-0.16823 0.173311 0)
(-0.182553 0.115904 0)
(-0.191068 0.0485951 0)
(-0.00333954 0.0625283 0)
(-0.0161578 0.148722 0)
(-0.0434395 0.225691 0)
(-0.0723793 0.266058 0)
(-0.101019 0.280184 0)
(-0.124185 0.267943 0)
(-0.139477 0.234591 0)
(-0.147594 0.186046 0)
(-0.151017 0.122947 0)
(-0.152636 0.0526174 0)
(-0.00457281 0.0782789 0)
(-0.0209748 0.182112 0)
(-0.0524161 0.266797 0)
(-0.0805895 0.303128 0)
(-0.102303 0.306816 0)
(-0.112643 0.282269 0)
(-0.111867 0.238839 0)
(-0.103754 0.184365 0)
(-0.0927559 0.119802 0)
(-0.0853918 0.0518692 0)
(-0.00684204 0.0983406 0)
(-0.0286568 0.220794 0)
(-0.0635163 0.306446 0)
(-0.0856108 0.330075 0)
(-0.0920607 0.316342 0)
(-0.0809813 0.276642 0)
(-0.0575774 0.224237 0)
(-0.0292904 0.16741 0)
(-0.00193267 0.106393 0)
(0.0152146 0.0462138 0)
(-0.0114225 0.125718 0)
(-0.0408773 0.265162 0)
(-0.0739349 0.337965 0)
(-0.0785937 0.33705 0)
(-0.0573111 0.300078 0)
(-0.0159042 0.246122 0)
(0.0340323 0.189489 0)
(0.0826149 0.136087 0)
(0.124505 0.0842065 0)
(0.149715 0.036382 0)
(-0.0205741 0.164753 0)
(-0.0570112 0.310161 0)
(-0.0708057 0.346506 0)
(-0.0388209 0.310706 0)
(0.0230489 0.251751 0)
(0.0980945 0.191419 0)
(0.171072 0.139207 0)
(0.23361 0.0959371 0)
(0.283396 0.057669 0)
(0.312223 0.0245832 0)
(-0.0337572 0.218068 0)
(-0.063854 0.338399 0)
(-0.0231108 0.312341 0)
(0.0641802 0.243977 0)
(0.168419 0.176411 0)
(0.267427 0.123297 0)
(0.350312 0.0845227 0)
(0.414801 0.0559155 0)
(0.46296 0.032638 0)
(0.489817 0.0136185 0)
(-0.0174788 0.280059 0)
(0.020044 0.294223 0)
(0.179666 0.194283 0)
(0.32234 0.123462 0)
(0.443244 0.0765276 0)
(0.535601 0.04838 0)
(0.603059 0.0311325 0)
(0.651211 0.0197562 0)
(0.685153 0.0111708 0)
(0.703318 0.00449339 0)
(0.238477 0.184328 0)
(0.383953 0.139634 0)
(0.588175 0.0653808 0)
(0.696245 0.0332812 0)
(0.766569 0.017537 0)
(0.812539 0.0100971 0)
(0.84334 0.00617112 0)
(0.864248 0.00378966 0)
(0.878479 0.0020798 0)
(0.885834 0.000789863 0)
(-0.205437 -0.0257369 0)
(-0.199534 -0.0897973 0)
(-0.18374 -0.145888 0)
(-0.160414 -0.18522 0)
(-0.130447 -0.207191 0)
(-0.0966194 -0.208706 0)
(-0.063362 -0.189348 0)
(-0.0351218 -0.153238 0)
(-0.0121224 -0.0960538 0)
(-0.00236632 -0.038894 0)
(-0.194711 -0.0260059 0)
(-0.192865 -0.0984107 0)
(-0.183868 -0.164784 0)
(-0.167274 -0.215119 0)
(-0.142262 -0.247754 0)
(-0.11016 -0.256998 0)
(-0.0752093 -0.23964 0)
(-0.0431659 -0.198647 0)
(-0.0153842 -0.127348 0)
(-0.00307997 -0.0523748 0)
(-0.155196 -0.0240535 0)
(-0.158674 -0.0996979 0)
(-0.160364 -0.172733 0)
(-0.156227 -0.233196 0)
(-0.142951 -0.278654 0)
(-0.118919 -0.300421 0)
(-0.0866065 -0.290715 0)
(-0.0525503 -0.249046 0)
(-0.0196987 -0.164615 0)
(-0.00409583 -0.0690759 0)
(-0.0857549 -0.0206053 0)
(-0.0945469 -0.0931125 0)
(-0.108684 -0.166856 0)
(-0.120988 -0.23351 0)
(-0.125783 -0.290954 0)
(-0.117467 -0.328494 0)
(-0.0945274 -0.332998 0)
(-0.0624005 -0.297697 0)
(-0.0252416 -0.204904 0)
(-0.00554776 -0.0882513 0)
(0.01773 -0.0162993 0)
(0.00432386 -0.0795761 0)
(-0.0223755 -0.147431 0)
(-0.0534277 -0.214554 0)
(-0.0819963 -0.280648 0)
(-0.0985203 -0.335441 0)
(-0.0950928 -0.361411 0)
(-0.0723134 -0.342724 0)
(-0.0331867 -0.250244 0)
(-0.0080028 -0.112065 0)
(0.154868 -0.0118381 0)
(0.138502 -0.061089 0)
(0.102061 -0.116678 0)
(0.0540877 -0.17678 0)
(0.000109448 -0.244097 0)
(-0.0488104 -0.312398 0)
(-0.0779682 -0.364217 0)
(-0.0780753 -0.374871 0)
(-0.0447528 -0.299385 0)
(-0.0127124 -0.143077 0)
(0.318718 -0.0078062 0)
(0.301714 -0.0410962 0)
(0.26126 -0.0804302 0)
(0.203591 -0.126575 0)
(0.130354 -0.184813 0)
(0.0492666 -0.255458 0)
(-0.0229547 -0.328291 0)
(-0.065475 -0.377167 0)
(-0.0583435 -0.344836 0)
(-0.0217915 -0.184858 0)
(0.495917 -0.00451266 0)
(0.480609 -0.0232272 0)
(0.442952 -0.0462116 0)
(0.386251 -0.0751584 0)
(0.307635 -0.115811 0)
(0.207456 -0.173748 0)
(0.0953767 -0.250368 0)
(-0.00452475 -0.330927 0)
(-0.0593172 -0.367174 0)
(-0.0339566 -0.238804 0)
(0.707142 -0.001728 0)
(0.696469 -0.00817254 0)
(0.670146 -0.0163546 0)
(0.629 -0.0273224 0)
(0.567766 -0.0443454 0)
(0.479525 -0.0729196 0)
(0.358357 -0.122052 0)
(0.209288 -0.198417 0)
(0.0351724 -0.308273 0)
(-0.0127872 -0.29491 0)
(0.887141 -0.000396638 0)
(0.882405 -0.00163119 0)
(0.871033 -0.003235 0)
(0.853065 -0.0054759 0)
(0.825407 -0.00921004 0)
(0.782608 -0.0163626 0)
(0.714893 -0.0317907 0)
(0.607692 -0.0642715 0)
(0.398843 -0.141465 0)
(0.245181 -0.188243 0)
)
;

boundaryField
{
    movingWall
    {
        type            fixedValue;
        value           nonuniform List<vector>
20
(
(1 0 0)
(1 0 0)
(1 0 0)
(1 0 0)
(1 0 0)
(1 0 0)
(1 0 0)
(1 0 0)
(1 0 0)
(1 0 0)
(1 0 0)
(1 0 0)
(1 0 0)
(1 0 0)
(1 0 0)
(1 0 0)
(1 0 0)
(1 0 0)
(1 0 0)
(1 0 0)
)
;
    }
    fixedWalls
    {
        type            fixedValue;
        value           uniform (0 0 0);
    }
    frontAndBack
    {
        type            empty;
    }
}


// ************************************************************************* //
