/*--------------------------------*- C++ -*----------------------------------*\
| =========                 |                                                 |
| \\      /  F ield         | OpenFOAM: The Open Source CFD Toolbox           |
|  \\    /   O peration     | Version:  1.4.2                                 |
|   \\  /    A nd           | Web:      http://www.openfoam.org               |
|    \\/     M anipulation  |                                                 |
\*---------------------------------------------------------------------------*/
FoamFile
{
    version     2.0;
    format      ascii;
    class       volScalarField;
    object      epsilon;
    location    "300";
}
// * * * * * * * * * * * * * * * * * * * * * * * * * * * * * * * * * * * * * //

dimensions      [0 2 -3 0 0 0 0];

internalField   nonuniform List<scalar> 
12225
(
443.025
353.45
290.582
245.338
212.177
187.578
169.224
155.545
145.453
138.171
133.138
129.936
128.246
127.821
128.466
130.018
132.343
135.596
60.1669
73.6171
79.573
83.7051
87.7304
92.378
98.0028
104.788
112.832
122.188
132.879
144.9
158.216
172.77
188.471
205.193
222.719
241.146
26.2969
33.7103
37.8444
40.6845
42.9337
44.9608
46.9784
49.1152
51.4517
54.0403
56.9146
60.0952
63.5917
67.4035
71.5174
75.9025
80.4908
85.1508
18.7363
22.7255
25.4819
27.3745
28.8156
30.0114
31.0731
32.0745
33.0654
34.0792
35.138
36.2564
37.4431
38.702
40.0323
41.4281
42.8768
44.3413
16.1691
18.1657
19.9357
21.2945
22.3456
23.1837
23.8839
24.5009
25.0686
25.6084
26.1354
26.6602
27.1901
27.7298
28.2817
28.8462
29.4224
29.9935
15.2356
16.0879
17.0512
17.9411
18.6937
19.3152
19.8329
20.2726
20.6561
21.0005
21.3185
21.6192
21.9088
22.1914
22.4698
22.7457
23.0201
23.2842
14.8943
15.1707
15.5881
16.0552
16.5106
16.9274
17.2962
17.6164
17.8943
18.1381
18.355
18.5511
18.7314
18.8994
19.0581
19.2092
19.3536
19.4875
14.7876
14.8382
14.9923
15.2109
15.4566
15.7052
15.9425
16.1612
16.3589
16.5361
16.6946
16.8368
16.9653
17.0826
17.1905
17.2903
17.3818
17.4613
14.7441
14.6885
14.7005
14.7669
14.869
14.9907
15.1201
15.2491
15.3728
15.4886
15.5955
15.6934
15.7829
15.8648
15.94
16.0091
16.0717
16.1242
14.7239
14.6133
14.5424
14.509
14.5065
14.5269
14.5629
14.6084
14.6588
14.7108
14.7624
14.8122
14.8595
14.9039
14.9456
14.9846
15.0208
15.0521
14.715
14.5789
14.4654
14.3753
14.3071
14.2579
14.2245
14.2034
14.1917
14.1867
14.1864
14.1895
14.1946
14.201
14.2083
14.216
14.2238
14.2307
14.711
14.5641
14.4315
14.3135
14.2101
14.1204
14.0433
13.9773
13.9209
13.8727
13.8312
13.7953
13.7641
13.7366
13.7124
13.6909
13.6717
13.6544
14.709
14.5577
14.4174
14.2875
14.168
14.0585
13.9584
13.8672
13.7842
13.7086
13.6397
13.5767
13.5192
13.4663
13.4178
13.373
13.3317
13.2941
14.7078
14.5545
14.4111
14.2767
14.1509
14.0331
13.923
13.8202
13.7241
13.6344
13.5506
13.4723
13.3991
13.3306
13.2666
13.2065
13.1504
13.0988
14.7069
14.5525
14.4077
14.2715
14.1434
14.0227
13.9088
13.8015
13.7001
13.6045
13.5142
13.429
13.3484
13.2723
13.2004
13.1324
13.0683
13.0089
14.7061
14.5509
14.4054
14.2684
14.1394
14.0175
13.9024
13.7935
13.6904
13.5928
13.5002
13.4124
13.3292
13.2501
13.1751
13.104
13.0367
12.974
14.7056
14.5499
14.4038
14.2664
14.137
14.0147
13.8991
13.7897
13.6861
13.5879
13.4946
13.4062
13.3221
13.2423
13.1664
13.0944
13.0261
12.9624
14.7054
14.5495
14.4033
14.2658
14.1361
14.0138
13.8981
13.7887
13.685
13.5867
13.4935
13.4051
13.3211
13.2413
13.1655
13.0935
13.0254
12.9618
14.7055
14.5498
14.4038
14.2664
14.1371
14.015
13.8998
13.7908
13.6877
13.5901
13.4977
13.4102
13.3272
13.2486
13.174
13.1033
13.0364
12.9742
14.7059
14.5507
14.4054
14.2689
14.1407
14.02
13.9066
13.7998
13.6992
13.6046
13.5155
13.4315
13.3523
13.2777
13.2072
13.1408
13.0782
13.0203
14.7067
14.5529
14.4096
14.2762
14.1521
14.0369
13.9301
13.8311
13.7393
13.6542
13.5752
13.5017
13.4333
13.3695
13.3099
13.2542
13.2021
13.1542
14.7085
14.559
14.4231
14.3008
14.1915
14.0945
14.0085
13.9322
13.8644
13.8039
13.7494
13.7001
13.6552
13.614
13.576
13.5406
13.5076
13.4775
14.7142
14.5803
14.4711
14.3857
14.3214
14.2744
14.2408
14.2173
14.2009
14.1892
14.1807
14.1738
14.1679
14.1621
14.1562
14.1499
14.1432
14.1364
14.7358
14.6588
14.6348
14.653
14.6996
14.7626
14.8329
14.9042
14.9722
15.0346
15.0902
15.1387
15.1802
15.2152
15.2443
15.268
15.2872
15.3027
14.8205
14.9295
15.1371
15.393
15.6577
15.9089
16.1358
16.3338
16.5028
16.6451
16.7641
16.8632
16.9455
17.0137
17.0703
17.1172
17.1563
17.1889
15.1411
15.7845
16.5149
17.2036
17.7926
18.2779
18.6713
18.9876
19.2413
19.4454
19.6104
19.7449
19.8555
19.9476
20.0253
20.0917
20.1495
20.2003
16.3185
18.2976
19.9596
21.2324
22.1794
22.8816
23.4051
23.8013
24.1066
24.3468
24.54
24.6996
24.8353
24.9545
25.0624
25.163
25.2591
25.3525
20.7537
25.6352
28.691
30.5983
31.839
32.6618
33.2195
33.6144
33.9117
34.1535
34.3672
34.5707
34.7755
34.9889
35.2153
35.4568
35.7143
35.9868
43.9601
54.4821
58.706
60.4171
60.9701
60.9827
60.836
60.7432
60.7714
60.9496
61.2871
61.7821
62.4272
63.2124
64.1259
65.1552
66.2858
67.5099
332.627
280.253
240.733
210.195
186.158
166.948
151.396
138.666
128.146
119.382
112.03
105.827
100.567
96.0894
92.2653
88.9913
86.1839
83.7739
1.58227
2.11653
2.67279
3.69127
5.5148
8.70723
12.8378
18.0629
24.6343
32.9587
41.2512
50.2331
60.0326
70.6754
82.1725
94.5345
107.773
121.901
136.935
152.89
169.786
187.643
206.483
226.33
247.212
269.156
292.194
316.358
341.685
368.212
395.982
425.037
455.424
487.191
520.39
555.076
591.305
629.135
668.626
709.84
752.839
797.687
844.444
893.172
943.926
996.762
1051.73
1108.86
1168.2
1229.75
1293.53
1359.53
1427.72
1498.05
1570.44
1644.81
1721.04
1799.01
1878.58
1959.63
2042.08
2125.93
2211.33
2297.63
2382.33
2464.6
2543.59
2618.41
2688.16
2751.97
2809
2858.47
2899.71
2932.16
2955.42
2969.2
2973.41
2968.08
2953.43
2929.8
2897.64
2857.53
2810.12
2756.1
2696.23
2631.26
2561.95
2489.04
2413.24
2335.24
2255.67
2175.13
2094.17
2013.35
1933.31
1854.42
1778.09
1705.4
1640.83
1584.62
1531.28
1479.49
1428.89
1379.42
1331.09
1283.93
1237.97
1193.25
1149.78
1107.6
1066.71
1027.11
988.818
951.815
916.098
881.651
848.458
816.498
785.749
756.185
727.779
700.503
674.327
649.22
625.151
602.088
579.999
558.852
538.614
519.253
500.738
483.038
466.121
449.958
434.519
419.774
405.697
392.258
379.433
367.195
355.518
344.38
333.756
323.624
313.963
304.752
295.97
287.599
279.621
272.018
264.772
257.869
251.292
245.027
239.059
233.377
227.966
222.814
217.91
213.243
208.808
204.592
200.582
196.767
193.14
189.689
186.406
183.281
180.304
177.463
174.746
172.137
169.619
167.164
164.736
162.278
159.698
156.809
153.342
147.719
6.16165
5.95183
7.84301
10.3135
13.5305
17.6337
22.6194
28.3926
34.8356
41.8195
49.1577
56.8768
64.9843
73.4769
82.3515
91.6077
101.248
111.278
121.703
132.534
143.778
155.448
167.555
180.111
193.128
206.621
220.603
235.087
250.089
265.623
281.703
298.344
315.561
333.368
351.78
370.811
390.472
410.778
431.739
453.364
475.661
498.636
522.293
546.632
571.65
597.34
623.693
650.693
678.323
706.56
735.376
764.741
794.62
824.977
855.777
886.981
918.557
950.475
982.713
1015.26
1048.1
1081.25
1114.72
1148.64
1181.96
1214.24
1245.15
1274.35
1301.47
1326.2
1348.22
1367.23
1383
1395.31
1404.03
1409.04
1410.33
1407.9
1401.82
1392.21
1379.23
1363.08
1343.98
1322.19
1297.96
1271.56
1243.29
1213.4
1182.16
1149.84
1116.67
1082.88
1048.67
1014.22
979.679
945.021
910.294
876.415
844.315
814.116
785.17
757.168
729.973
703.532
677.823
652.838
628.576
605.035
582.217
560.118
538.735
518.065
498.101
478.834
460.254
442.352
425.114
408.527
392.577
377.249
362.527
348.394
334.835
321.832
309.368
297.425
285.987
275.037
264.556
254.529
244.938
235.768
227.002
218.624
210.619
202.973
195.669
188.695
182.037
175.681
169.614
163.824
158.3
153.028
147.999
143.202
138.625
134.261
130.098
126.129
122.343
118.734
115.293
112.012
108.885
105.903
103.062
100.354
97.7728
95.3138
92.9746
90.7506
88.6342
86.6185
84.6988
82.8708
81.1305
79.4744
77.8989
76.4007
74.977
73.6257
72.3458
71.1379
70.0071
68.967
68.0525
67.3562
67.1515
68.3143
15.0453
12.1164
13.7006
16.5831
20.3782
24.9966
30.3575
36.3473
42.8498
49.7676
57.0321
64.62
72.5207
80.728
89.2398
98.0568
107.182
116.621
126.379
136.463
146.879
157.634
168.735
180.189
192.002
204.179
216.725
229.647
242.948
256.632
270.702
285.162
300.013
315.257
330.894
346.924
363.346
380.157
397.354
414.932
432.885
451.207
469.887
488.917
508.285
527.977
547.98
568.28
588.861
609.707
630.804
652.137
673.694
695.464
717.441
739.619
761.998
784.579
807.366
830.357
853.549
876.923
900.438
923.975
947.154
969.71
991.397
1011.96
1031.14
1048.67
1064.31
1077.82
1089
1097.69
1103.76
1107.12
1107.73
1105.59
1100.74
1093.27
1083.28
1070.91
1056.33
1039.72
1021.27
1001.18
979.655
956.898
933.1
908.442
883.095
857.214
830.932
804.357
777.618
750.663
724.323
698.727
674.075
650.361
627.436
605.185
583.541
562.476
541.977
522.042
502.669
483.861
465.618
447.94
430.826
414.273
398.277
382.831
367.929
353.562
339.722
326.398
313.579
301.254
289.41
278.036
267.117
256.641
246.595
236.964
227.736
218.897
210.433
202.332
194.579
187.163
180.069
173.287
166.803
160.606
154.684
149.027
143.622
138.46
133.53
128.822
124.327
120.036
115.939
112.028
108.296
104.733
101.333
98.0886
94.9923
92.0376
89.2183
86.5281
83.9613
81.5124
79.1759
76.9468
74.8204
72.7919
70.8578
69.0141
67.2567
65.5822
63.9863
62.4647
61.0143
59.6322
58.3154
57.0619
55.8694
54.7369
53.6643
52.6533
51.7094
50.8452
50.0891
49.5044
49.2455
49.6412
24.6448
17.4685
18.7455
21.8663
25.9718
30.8357
36.3402
42.3855
48.8856
55.774
63.0064
70.559
78.4193
86.5813
95.0431
103.806
112.871
122.243
131.924
141.919
152.23
162.86
173.811
185.084
196.68
208.597
220.834
233.389
246.258
259.437
272.922
286.705
300.781
315.141
329.777
344.68
359.838
375.242
390.88
406.74
422.81
439.075
455.525
472.146
488.926
505.852
522.916
540.107
557.418
574.845
592.386
610.042
627.819
645.725
663.775
681.985
700.375
718.966
737.78
756.831
776.126
795.659
815.399
835.218
854.906
874.266
893.086
911.13
928.146
943.874
958.06
970.461
980.863
989.08
994.967
998.42
999.377
997.822
993.778
987.308
978.512
967.521
954.486
939.573
922.966
904.856
885.439
864.906
843.432
821.183
798.308
774.951
751.216
727.211
703.195
679.455
656.178
633.452
611.36
589.915
569.084
548.827
529.117
509.94
491.288
473.159
455.552
438.467
421.902
405.857
390.328
375.313
360.805
346.798
333.286
320.261
307.713
295.633
284.011
272.836
262.096
251.78
241.876
232.373
223.257
214.517
206.14
198.115
190.429
183.069
176.025
169.284
162.835
156.667
150.768
145.129
139.738
134.585
129.661
124.957
120.462
116.168
112.066
108.149
104.407
100.834
97.422
94.1638
91.0527
88.0821
85.2459
82.5379
79.9524
77.484
75.1273
72.8773
70.7293
68.6787
66.721
64.8521
63.0683
61.3659
59.7414
58.1914
56.7128
55.3021
53.9563
52.6726
51.4484
50.2817
49.1706
48.1142
47.1123
46.1663
45.2805
44.4646
43.7382
43.1407
42.7544
42.7008
32.4437
21.8592
22.7875
25.9836
30.2256
35.1816
40.7094
46.7211
53.1539
59.9631
67.1197
74.6065
82.4143
90.5388
98.9789
107.735
116.809
126.202
135.916
145.952
156.309
166.987
177.983
189.295
200.918
212.846
225.073
237.589
250.386
263.454
276.779
290.351
304.155
318.176
332.4
346.81
361.39
376.123
390.992
405.98
421.072
436.25
451.501
466.811
482.168
497.564
512.991
528.447
543.931
559.449
575.01
590.628
606.323
622.121
638.053
654.154
670.462
687.02
703.866
721.038
738.561
756.448
774.694
793.191
811.797
830.344
848.629
866.408
883.413
899.354
913.941
926.895
937.959
946.912
953.571
957.801
959.517
958.682
955.302
949.432
941.173
930.665
918.07
903.559
887.324
869.576
850.531
830.394
809.346
787.563
765.179
742.392
719.253
696.209
673.33
650.743
628.554
606.837
585.648
565.008
544.919
525.371
506.357
487.868
469.903
452.457
435.529
419.118
403.219
387.831
372.947
358.564
344.675
331.272
318.348
305.893
293.899
282.355
271.251
260.576
250.318
240.466
231.009
221.934
213.23
204.885
196.886
189.222
181.881
174.852
168.123
161.683
155.521
149.626
143.987
138.595
133.44
128.511
123.8
119.298
114.995
110.883
106.954
103.2
99.6136
96.1874
92.9143
89.7877
86.801
83.9481
81.2229
78.6199
76.1334
73.7584
71.4898
69.3228
67.2529
65.2757
63.3871
61.5831
59.86
58.2143
56.6427
55.1418
53.7087
52.3405
51.0343
49.7874
48.5973
47.4621
46.3801
45.3502
44.3723
43.4475
42.5791
41.7745
41.0478
40.4247
39.9518
39.6783
38.799
25.2879
25.7857
28.904
33.1373
38.0658
43.5247
49.4305
55.7348
62.4079
69.4322
76.7977
84.4998
92.5368
100.909
109.617
118.662
128.045
137.766
147.824
158.217
168.942
179.994
191.367
203.052
215.041
227.322
239.884
252.712
265.79
279.104
292.634
306.362
320.269
334.334
348.535
362.853
377.265
391.75
406.287
420.856
435.44
450.021
464.586
479.122
493.622
508.082
522.503
536.89
551.256
565.618
580.002
594.441
608.974
623.647
638.516
653.638
669.076
684.894
701.153
717.904
735.185
753.013
771.323
790.007
808.914
827.833
846.503
864.617
881.84
897.827
912.24
924.768
935.135
943.114
948.532
951.275
951.292
948.563
943.129
935.103
924.649
911.972
897.233
880.649
862.458
842.924
822.295
800.747
778.508
755.636
732.626
709.566
686.623
663.903
641.505
619.509
597.973
576.942
556.441
536.48
517.062
498.186
479.849
462.048
444.78
428.041
411.829
396.137
380.961
366.295
352.131
338.461
325.278
312.573
300.334
288.553
277.218
266.319
255.843
245.78
236.116
226.841
217.943
209.409
201.227
193.385
185.872
178.675
171.784
165.186
158.872
152.829
147.048
141.517
136.228
131.17
126.333
121.709
117.288
113.062
109.023
105.163
101.473
97.9472
94.5777
91.3577
88.2807
85.3403
82.5306
79.8457
77.28
74.8282
72.4853
70.2463
68.1067
66.0619
64.1077
62.2401
60.4552
58.7494
57.1192
55.5613
54.0725
52.65
51.2908
49.9923
48.7517
47.5669
46.4359
45.357
44.3292
43.3523
42.427
41.5562
40.7454
40.0051
39.3528
38.8162
38.4166
43.4929
27.7637
27.799
30.7128
34.8074
39.5983
44.9002
50.629
56.7435
63.2227
70.0563
77.2398
84.7723
92.6544
100.888
109.475
118.416
127.713
137.365
147.371
157.728
168.431
179.473
190.848
202.544
214.551
226.855
239.441
252.292
265.39
278.715
292.247
305.962
319.837
333.849
347.971
362.18
376.449
390.754
405.069
419.373
433.643
447.86
462.007
476.073
490.048
503.928
517.716
531.421
545.058
558.653
572.238
585.856
599.559
613.411
627.482
641.854
656.615
671.855
687.666
704.131
721.321
739.28
757.995
777.393
797.328
817.581
837.857
857.8
877.008
895.063
911.554
926.097
938.356
948.048
954.967
958.947
959.975
957.965
952.922
944.975
934.319
921.187
905.835
888.52
869.497
849.072
827.492
804.918
781.828
758.352
734.76
711.254
687.922
664.872
642.192
619.947
598.19
576.956
556.269
536.141
516.575
497.572
479.13
461.245
443.912
427.127
410.883
395.175
379.993
365.332
351.182
337.534
324.379
311.706
299.504
287.763
276.47
265.615
255.184
245.166
235.548
226.319
217.465
208.974
200.834
193.034
185.56
178.401
171.546
164.982
158.7
152.687
146.934
141.43
136.165
131.129
126.312
121.707
117.303
113.092
109.066
105.218
101.538
98.0211
94.6588
91.4446
88.3722
85.4351
82.6274
79.9434
77.3776
74.9247
72.5796
70.3377
68.1941
66.1447
64.1851
62.3114
60.5197
58.8065
57.1683
55.6019
54.104
52.6717
51.3023
49.993
48.7413
47.545
46.4022
45.3113
44.2712
43.2817
42.3433
41.4582
40.6309
39.8692
39.1851
38.5953
38.1099
46.447
29.3255
28.9216
31.5418
35.3895
39.944
45.0057
50.4878
56.3509
62.5777
69.1612
76.1
83.3951
91.0492
99.0653
107.446
116.195
125.312
134.798
144.652
154.871
165.45
176.382
187.66
199.271
211.205
223.446
235.978
248.783
261.842
275.132
288.631
302.314
316.155
330.128
344.204
358.354
372.551
386.766
400.971
415.139
429.244
443.264
457.179
470.973
484.634
498.157
511.543
524.799
537.943
551.002
564.014
577.028
590.109
603.331
616.787
630.58
644.826
659.651
675.183
691.549
708.861
727.206
746.634
767.108
788.495
810.559
832.96
855.271
877.006
897.653
916.707
933.702
948.233
959.945
968.655
974.004
975.869
974.254
969.263
961.088
949.969
936.176
920.041
901.872
881.868
860.497
838.081
814.835
791.051
766.941
742.716
718.551
694.586
670.97
647.793
625.104
602.949
581.359
560.352
539.935
520.111
500.877
482.228
464.159
446.663
429.732
413.359
397.535
382.252
367.5
353.269
339.55
326.331
313.601
301.348
289.561
278.228
267.335
256.871
246.822
237.176
227.92
219.041
210.527
202.365
194.543
187.048
179.869
172.994
166.411
160.109
154.077
148.305
142.781
137.496
132.44
127.604
122.978
118.553
114.322
110.275
106.405
102.705
99.1658
95.7818
92.5457
89.4511
86.4918
83.6618
80.9554
78.3671
75.8916
73.5239
71.2592
69.093
67.0208
65.0385
63.1421
61.3279
59.5921
57.9314
56.3425
54.8222
53.3675
51.9756
50.6439
49.3699
48.1514
46.9867
45.874
44.8125
43.8016
42.8418
41.9349
41.0842
40.2956
39.5772
38.9392
38.3867
47.7406
30.0462
29.2659
31.542
35.0632
39.3016
44.0517
49.2238
54.7775
60.6949
66.9695
73.6004
80.5896
87.9407
95.658
103.745
112.206
121.044
130.258
139.85
149.816
160.152
170.854
181.912
193.317
205.056
217.116
229.48
242.129
255.045
268.204
281.583
295.157
308.897
322.776
336.765
350.831
364.945
379.074
393.187
407.254
421.244
435.131
448.89
462.5
475.946
489.216
502.308
515.226
527.985
540.61
553.14
565.627
578.142
590.774
603.63
616.841
630.554
644.936
660.163
676.419
693.877
712.682
732.967
754.742
777.887
802.141
827.1
852.242
876.968
900.648
922.665
942.459
959.586
973.472
983.686
990.005
992.383
990.902
985.739
977.169
965.49
950.945
934.037
915.132
894.523
872.568
849.577
825.811
801.523
776.925
752.212
727.548
703.078
678.929
655.21
632.032
609.45
587.487
566.152
545.446
525.364
505.899
487.042
468.783
451.114
434.026
417.507
401.549
386.142
371.276
356.939
343.12
329.807
316.99
304.655
292.791
281.384
270.421
259.89
249.778
240.071
230.756
221.821
213.252
205.037
197.164
189.619
182.391
175.467
168.837
162.489
156.412
150.594
145.027
139.698
134.599
129.721
125.053
120.587
116.315
112.228
108.318
104.578
101
97.5775
94.3033
91.171
88.1744
85.3075
82.5647
79.9403
77.4293
75.0264
72.727
70.5265
68.4205
66.4048
64.4754
62.6286
60.8607
59.1683
57.548
55.9968
54.5114
53.089
51.7272
50.4236
49.176
47.9825
46.8417
45.7525
44.7144
43.7276
42.7934
41.9144
41.0949
40.3402
39.6563
39.0464
47.5398
30.0276
28.959
30.8768
34.0245
37.8923
42.2778
47.0894
52.2834
57.8395
63.7495
70.0118
76.6284
83.6035
90.9419
98.6487
106.728
115.185
124.02
133.235
142.828
152.798
163.14
173.846
184.909
196.317
208.057
220.114
232.471
245.109
258.006
271.139
284.483
298.01
311.691
325.495
339.391
353.345
367.324
381.292
395.216
409.062
422.797
436.392
449.82
463.06
476.094
488.914
501.517
513.914
526.122
538.178
550.129
562.05
574.035
586.211
598.732
611.783
625.578
640.356
656.373
673.892
693.15
714.374
737.632
762.816
789.63
817.57
845.973
874.097
901.171
926.447
949.241
968.726
984.295
995.586
1002.5
1005.1
1003.51
998.017
988.997
976.825
961.864
944.539
925.227
904.272
882.003
858.719
834.687
810.144
785.299
760.337
735.417
710.679
686.243
662.216
638.695
615.766
593.516
571.942
551.033
530.775
511.155
492.158
473.772
455.985
438.785
422.163
406.106
390.605
375.648
361.224
347.322
333.929
321.033
308.623
296.684
285.205
274.173
263.573
253.394
243.621
234.242
225.244
216.613
208.337
200.403
192.798
185.512
178.53
171.843
165.439
159.306
153.433
147.811
142.429
137.277
132.346
127.626
123.11
118.787
114.65
110.691
106.902
103.276
99.8063
96.4854
93.3071
90.2651
87.3534
84.5664
81.8985
79.3446
76.8995
74.5585
72.3169
70.1706
68.1151
66.1466
64.2613
62.4554
60.7256
59.0685
57.4807
55.9593
54.5015
53.1047
51.7667
50.4854
49.2588
48.0856
46.9645
45.8951
44.8773
43.9122
43.0015
42.1482
41.3557
40.6272
39.9653
46.0209
29.3879
28.1393
29.7197
32.4818
35.9543
39.9446
44.3609
49.1564
54.3076
59.8041
65.6432
71.8263
78.3577
85.2428
92.4872
100.097
108.076
116.428
125.156
134.261
143.741
153.593
163.814
174.395
185.328
196.603
208.205
220.119
232.328
244.812
257.549
270.515
283.683
297.024
310.509
324.105
337.778
351.491
365.209
378.892
392.505
406.01
419.371
432.556
445.538
458.292
470.802
483.062
495.072
506.845
518.403
529.786
541.058
552.321
563.711
575.411
587.648
600.698
614.87
630.514
648.013
667.749
690.054
715.051
742.638
772.455
803.828
835.891
867.719
898.41
926.828
951.999
973.221
989.904
1001.74
1008.83
1011.33
1009.53
1003.78
994.479
982.04
966.871
949.379
929.942
908.911
886.607
863.322
839.313
814.811
790.017
765.106
740.232
715.526
691.104
667.065
643.502
620.495
598.127
576.476
555.519
535.23
515.587
496.571
478.166
460.36
443.139
426.493
410.411
394.881
379.892
365.434
351.495
338.063
325.127
312.674
300.691
289.166
278.086
267.438
257.209
247.386
237.955
228.905
220.221
211.892
203.904
196.246
188.905
181.869
175.127
168.668
162.48
156.553
150.877
145.44
140.235
135.25
130.477
125.907
121.532
117.343
113.332
109.492
105.815
102.295
98.9246
95.6972
92.6067
89.6472
86.8129
84.0984
81.4984
79.0079
76.6222
74.3365
72.1467
70.0484
68.0377
66.1108
64.264
62.4938
60.7965
59.1691
57.6087
56.1124
54.6779
53.3028
51.985
50.7227
49.5144
48.359
47.2557
46.2045
45.2059
44.2612
43.3723
42.541
41.7689
41.0586
43.3092
28.2544
26.9558
28.252
30.6511
33.7331
37.3205
41.3241
45.6958
50.4103
55.4553
60.8268
66.526
72.5568
78.9249
85.6366
92.6981
100.115
107.893
116.036
124.545
133.422
142.666
152.274
162.241
172.562
183.228
194.227
205.546
217.171
229.085
241.266
253.693
266.342
279.185
292.193
305.334
318.573
331.875
345.202
358.512
371.766
384.922
397.941
410.785
423.419
435.815
447.951
459.817
471.411
482.742
493.819
504.646
515.273
525.797
536.364
547.184
558.547
570.826
584.396
599.716
617.315
637.794
661.565
688.779
719.294
752.695
787.992
823.993
859.608
893.353
923.997
950.611
972.574
989.54
1001.42
1008.33
1010.54
1008.42
1002.36
992.802
980.18
964.92
947.423
928.066
907.192
885.112
862.105
838.416
814.263
789.836
765.298
740.793
716.444
692.358
668.628
645.337
622.563
600.381
578.873
558.073
537.938
518.441
499.56
481.277
463.58
446.455
429.892
413.881
398.412
383.473
369.056
355.148
341.74
328.82
316.376
304.396
292.868
281.78
271.119
260.872
251.028
241.573
232.494
223.78
215.417
207.393
199.697
192.317
185.24
178.455
171.952
165.719
159.747
154.023
148.54
143.286
138.253
133.431
128.813
124.388
120.15
116.091
112.202
108.477
104.908
101.49
98.2143
95.0763
92.0696
89.1886
86.4278
83.7819
81.246
78.8154
76.4854
74.2516
72.11
70.0566
68.0873
66.1987
64.3868
62.6483
60.9802
59.3797
57.8439
56.3705
54.9572
53.6018
52.3026
51.058
49.8668
48.7284
47.6424
46.609
45.629
44.7035
43.8333
43.0188
42.2628
40.0307
26.8849
25.6082
26.6758
28.7547
31.4718
34.6672
38.258
42.1977
46.4605
51.0333
55.9113
61.0949
66.5876
72.3951
78.5239
84.9808
91.7726
98.9051
106.384
114.212
122.393
130.928
139.816
149.056
158.642
168.57
178.83
189.414
200.308
211.498
222.967
234.696
246.662
258.84
271.205
283.725
296.367
309.095
321.871
334.655
347.403
360.072
372.619
385.001
397.18
409.125
420.813
432.236
443.406
454.281
464.851
475.13
485.172
495.083
505.024
515.233
526.036
537.876
551.277
566.823
585.205
607.26
633.422
663.769
697.952
735.186
774.31
813.949
852.37
888.041
919.771
946.753
968.537
984.968
996.113
1002.21
1003.64
1000.8
994.167
984.185
971.305
955.951
938.518
919.365
898.818
877.17
854.677
831.569
808.042
784.271
760.404
736.571
712.884
689.438
666.32
643.604
621.361
599.66
578.573
558.165
538.391
519.225
500.646
482.639
465.19
448.291
431.931
416.102
400.795
386.001
371.711
357.916
344.606
331.77
319.399
307.48
296.004
284.958
274.33
264.109
254.283
244.839
235.766
227.052
218.684
210.652
202.942
195.544
188.447
181.639
175.109
168.847
162.843
157.087
151.569
146.279
141.208
136.348
131.69
127.225
122.946
118.844
114.913
111.145
107.534
104.072
100.753
97.5719
94.5219
91.5976
88.7936
86.1047
83.526
81.0528
78.6805
76.4048
74.2215
72.1267
70.1163
68.1864
66.3335
64.5545
62.8464
61.2063
59.6316
58.1197
56.6684
55.2756
53.9395
52.6585
51.4316
50.2577
49.1366
48.068
47.0525
46.0903
45.1816
44.326
43.5269
36.2625
25.3464
24.1956
25.099
26.9064
29.2905
32.112
35.2978
38.806
42.6119
46.7026
51.0725
55.7212
60.6517
65.8692
71.38
77.1912
83.3098
89.7428
96.4964
103.576
110.986
118.729
126.807
135.22
143.968
153.045
162.449
172.17
182.201
192.53
203.144
214.026
225.157
236.518
248.083
259.825
271.714
283.715
295.793
307.906
320.012
332.067
344.025
355.842
367.479
378.901
390.088
401.042
411.738
422.142
432.25
442.09
451.737
461.317
471.028
481.153
492.081
504.349
518.554
535.474
555.991
581.075
611.059
645.79
684.548
726.122
769.02
811.313
851.184
887.19
918.339
944.07
964.182
978.742
988.004
992.342
992.204
988.067
980.41
969.696
956.361
940.812
923.415
904.503
884.371
863.283
841.467
819.124
796.43
773.536
750.572
727.651
704.871
682.317
660.062
638.175
616.718
595.753
575.35
555.556
536.339
517.68
499.564
481.979
464.918
448.372
432.334
416.799
401.758
387.206
373.135
359.538
346.405
333.729
321.499
309.707
298.342
287.394
276.853
266.706
256.944
247.554
238.527
229.849
221.511
213.501
205.808
198.421
191.329
184.521
177.988
171.718
165.703
159.932
154.396
149.086
143.992
139.107
134.422
129.929
125.62
121.487
117.523
113.722
110.076
106.578
103.224
100.006
96.9191
93.9575
91.1158
88.3891
85.7723
83.261
80.8505
78.5366
76.3151
74.1817
72.1325
70.164
68.2727
66.4556
64.7097
63.0321
61.4202
59.8714
58.3837
56.9548
55.5831
54.2669
53.005
51.7965
50.6408
49.5377
48.487
47.4889
46.5429
45.6481
44.8083
32.1123
23.6404
22.7339
23.5406
25.1243
27.2104
29.6829
32.481
35.5689
38.9249
42.5368
46.3986
50.5091
54.8704
59.4867
64.364
69.5089
74.9286
80.6304
86.6212
92.9075
99.495
106.388
113.592
121.107
128.935
137.077
145.529
154.288
163.349
172.704
182.343
192.254
202.423
212.833
223.464
234.293
245.294
256.435
267.685
279.005
290.354
301.69
312.969
324.147
335.185
346.049
356.719
367.198
377.461
387.496
397.322
406.999
416.639
426.417
436.596
447.552
459.735
473.755
490.404
510.669
535.681
566.191
602.203
643.032
687.331
733.331
778.925
822.067
861.143
895.067
923.256
945.541
962.047
973.093
979.11
980.584
978.02
971.913
962.735
950.924
936.881
920.97
903.515
884.805
865.095
844.608
823.538
802.055
780.305
758.414
736.493
714.635
692.922
671.426
650.21
629.333
608.848
588.811
569.287
550.276
531.771
513.762
496.243
479.208
462.652
446.573
430.965
415.825
401.148
386.93
373.165
359.846
346.969
334.525
322.507
310.906
299.715
288.923
278.522
268.501
258.851
249.561
240.622
232.022
223.751
215.799
208.156
200.81
193.753
186.974
180.463
174.21
168.206
162.442
156.909
151.597
146.499
141.606
136.91
132.403
128.078
123.927
119.943
116.12
112.45
108.928
105.548
102.302
99.187
96.196
93.3242
90.5667
87.9185
85.3752
82.9323
80.5856
78.3304
76.1629
74.0793
72.0764
70.1508
68.2993
66.5191
64.8073
63.1613
61.5787
60.0571
58.5947
57.1895
55.8401
54.5452
53.3037
52.1149
50.9786
49.8942
48.8616
47.88
46.9481
46.0702
27.8581
21.7841
21.2188
21.994
23.4014
25.2275
27.3823
29.8186
32.5081
35.4328
38.582
41.9498
45.5344
49.3366
53.3596
57.6084
62.089
66.808
71.7727
76.9904
82.4681
88.2127
94.2303
100.526
107.105
113.971
121.125
128.57
136.303
144.324
152.629
161.212
170.066
179.181
188.546
198.146
207.963
217.976
228.161
238.489
248.929
259.444
269.996
280.546
291.056
301.491
311.825
322.043
332.149
342.158
352.093
362.021
372.065
382.407
393.297
405.08
418.226
433.346
451.253
473.013
499.873
532.858
572.036
616.594
664.885
714.713
763.551
809.181
849.95
884.858
913.484
935.844
952.24
963.133
969.061
970.577
968.218
962.489
953.858
942.745
929.532
914.557
898.123
880.495
861.909
842.569
822.654
802.319
781.699
760.911
740.055
719.218
698.476
677.894
657.532
637.441
617.67
598.265
579.273
560.705
542.57
524.869
507.604
490.776
474.382
458.424
442.899
427.807
413.146
398.913
385.106
371.722
358.756
346.203
334.059
322.316
310.968
300.008
289.429
279.221
269.377
259.887
250.743
241.934
233.453
225.289
217.432
209.873
202.603
195.612
188.891
182.43
176.221
170.254
164.521
159.013
153.722
148.639
143.757
139.068
134.565
130.24
126.086
122.097
118.265
114.585
111.05
107.655
104.393
101.26
98.2495
95.3568
92.5772
89.9058
87.3383
84.8701
82.4967
80.214
78.0186
75.9067
73.875
71.9204
70.0396
68.2298
66.4883
64.8124
63.1998
61.6481
60.1555
58.7202
57.3404
56.0151
54.7431
53.5237
52.3562
51.2402
50.1751
49.1602
48.1939
47.2807
23.7503
19.8069
19.6405
20.4434
21.7247
23.3357
25.2138
27.3259
29.6515
32.1772
34.8943
37.7976
40.8848
44.1559
47.613
51.26
55.102
59.1449
63.3957
67.8615
72.5498
77.468
82.6232
88.0223
93.6715
99.5764
105.742
112.172
118.868
125.834
133.068
140.57
148.337
156.365
164.648
173.176
181.94
190.924
200.112
209.483
219.013
228.674
238.437
248.273
258.156
268.067
277.997
287.956
297.976
308.118
318.479
329.203
340.501
352.66
366.062
381.217
398.794
419.673
445.045
476.369
514.765
560.078
611.141
665.547
720.294
772.446
819.651
860.41
894.066
920.613
940.462
954.245
962.661
966.4
966.098
962.325
955.581
946.304
934.878
921.638
906.879
890.861
873.812
855.931
837.395
818.355
798.946
779.283
759.467
739.587
719.719
699.927
680.27
660.8
641.562
622.601
603.955
585.635
567.661
550.048
532.806
515.943
499.464
483.374
467.674
452.366
437.453
422.935
408.812
395.083
381.748
368.803
356.248
344.077
332.288
320.876
309.834
299.158
288.841
278.875
269.254
259.97
251.014
242.379
234.056
226.037
218.312
210.873
203.712
196.819
190.187
183.806
177.667
171.764
166.087
160.628
155.38
150.335
145.485
140.823
136.342
132.035
127.895
123.917
120.092
116.416
112.883
109.486
106.22
103.081
100.062
97.1587
94.367
91.682
89.0989
86.6134
84.2215
81.9194
79.7036
77.5706
75.5171
73.5398
71.6359
69.8024
68.0366
66.336
64.6982
63.1211
61.6026
60.141
58.7347
57.3825
56.0832
54.836
53.6402
52.4953
51.4005
50.3549
49.3571
48.4116
19.9315
17.718
17.9686
18.8563
20.0727
21.5292
23.1896
25.0345
27.0513
29.2312
31.5682
34.0583
36.6995
39.4918
42.4368
45.5376
48.7986
52.2253
55.824
59.6017
63.5658
67.7241
72.0844
76.6544
81.4416
86.4533
91.6962
97.1765
102.9
108.87
115.093
121.569
128.302
135.292
142.539
150.041
157.794
165.793
174.03
182.493
191.169
200.045
209.105
218.34
227.746
237.333
247.134
257.207
267.652
278.616
290.305
302.999
317.069
333
351.422
373.151
399.261
431.182
470.699
518.975
574.787
635.704
698.169
758.297
812.773
859.418
897.29
926.463
947.654
961.879
970.212
973.644
973.017
969.027
962.238
953.11
942.021
929.284
915.165
899.891
883.661
866.648
849.006
830.87
812.358
793.575
774.612
755.55
736.459
717.403