/*--------------------------------*- C++ -*----------------------------------*\
| =========                 |                                                 |
| \\      /  F ield         | OpenFOAM: The Open Source CFD Toolbox           |
|  \\    /   O peration     | Version:  1.4.2                                 |
|   \\  /    A nd           | Web:      http://www.openfoam.org               |
|    \\/     M anipulation  |                                                 |
\*---------------------------------------------------------------------------*/
FoamFile
{
    version     2.0;
    format      ascii;
    class       volScalarField;
    object      k;
    location    "300";
}
// * * * * * * * * * * * * * * * * * * * * * * * * * * * * * * * * * * * * * //

dimensions      [0 2 -2 0 0 0 0];

internalField   nonuniform List<scalar> 
12225
(
0.315115
0.271062
0.237883
0.212501
0.192893
0.17768
0.165892
0.156827
0.149968
0.144921
0.14138
0.139103
0.137894
0.13759
0.138052
0.139162
0.140816
0.143114
0.365358
0.357609
0.353824
0.353679
0.356725
0.362599
0.370977
0.381566
0.394096
0.408319
0.423999
0.440906
0.45882
0.477524
0.496804
0.516445
0.536166
0.556509
0.370186
0.364634
0.360181
0.356895
0.354764
0.353737
0.353743
0.3547
0.356525
0.359137
0.362457
0.366409
0.370914
0.375895
0.381264
0.386916
0.392695
0.398495
0.371734
0.367474
0.363483
0.359992
0.35701
0.35454
0.352569
0.351068
0.350002
0.349334
0.349024
0.349036
0.349333
0.349876
0.350627
0.351542
0.35257
0.353686
0.372437
0.369044
0.365582
0.362317
0.359323
0.356618
0.354204
0.352068
0.350196
0.34857
0.34717
0.345976
0.344966
0.34412
0.343416
0.342833
0.342352
0.341964
0.372749
0.369937
0.366982
0.364045
0.361232
0.358588
0.35613
0.35386
0.351772
0.349857
0.348105
0.346504
0.345041
0.343705
0.342483
0.341363
0.340338
0.33941
0.372877
0.370405
0.367843
0.365252
0.3627
0.360229
0.357868
0.355633
0.353531
0.351559
0.349713
0.347987
0.346373
0.344863
0.343451
0.34213
0.340895
0.339759
0.372917
0.370594
0.368248
0.365889
0.363552
0.361263
0.359045
0.356914
0.354878
0.352944
0.351111
0.349377
0.34774
0.346193
0.344732
0.343354
0.342057
0.34086
0.372932
0.370683
0.368464
0.366261
0.364086
0.36195
0.359869
0.357852
0.355909
0.354044
0.352262
0.350561
0.348942
0.347401
0.345936
0.344545
0.343229
0.34201
0.372936
0.370727
0.368587
0.366496
0.36445
0.36245
0.360501
0.358608
0.356776
0.355007
0.353306
0.351672
0.350106
0.348607
0.347173
0.345802
0.344498
0.343282
0.372936
0.370743
0.368645
0.366622
0.364665
0.362768
0.360929
0.359146
0.357421
0.355754
0.354146
0.352597
0.351106
0.349672
0.348295
0.346974
0.345711
0.344528
0.372935
0.370745
0.368664
0.366676
0.364769
0.362937
0.361174
0.359474
0.357836
0.356256
0.354734
0.353267
0.351855
0.350495
0.349187
0.347929
0.346725
0.345594
0.372935
0.370743
0.368666
0.36669
0.364806
0.363007
0.361286
0.359637
0.358056
0.356537
0.355079
0.353678
0.352331
0.351037
0.349792
0.348597
0.347453
0.346378
0.372935
0.370741
0.368662
0.366688
0.364811
0.363024
0.361322
0.359697
0.358145
0.356661
0.355241
0.353881
0.352578
0.351329
0.350132
0.348985
0.347889
0.346861
0.372938
0.37074
0.368658
0.366683
0.364806
0.363021
0.361324
0.359707
0.358166
0.356697
0.355294
0.353955
0.352675
0.351451
0.350281
0.349163
0.348097
0.3471
0.372941
0.370742
0.368658
0.36668
0.364801
0.363016
0.361318
0.359702
0.358164
0.356698
0.355301
0.353969
0.352698
0.351485
0.350327
0.349222
0.348171
0.347188
0.372946
0.370746
0.368661
0.366681
0.3648
0.363013
0.361314
0.359697
0.358159
0.356693
0.355297
0.353966
0.352697
0.351487
0.350333
0.349232
0.348186
0.347209
0.372951
0.370751
0.368665
0.366684
0.364802
0.363014
0.361314
0.359697
0.358157
0.356691
0.355294
0.353962
0.352693
0.351482
0.350327
0.349226
0.34818
0.347202
0.372949
0.37075
0.368664
0.366683
0.364802
0.363014
0.361313
0.359695
0.358153
0.356685
0.355285
0.35395
0.352676
0.351461
0.3503
0.349193
0.34814
0.347155
0.372944
0.370746
0.368661
0.36668
0.364799
0.363008
0.361304
0.35968
0.358131
0.356653
0.355242
0.353894
0.352605
0.351373
0.350195
0.349068
0.347995
0.34699
0.37294
0.370741
0.368656
0.366672
0.364783
0.362982
0.361262
0.359617
0.358043
0.356536
0.355091
0.353706
0.352378
0.351105
0.349883
0.348712
0.347594
0.346544
0.372935
0.370734
0.36864
0.36664
0.364724
0.362884
0.361116
0.359414
0.357776
0.356198
0.354678
0.353216
0.351808
0.350454
0.349152
0.347902
0.346707
0.345583
0.372928
0.370713
0.368585
0.366529
0.364535
0.362599
0.360719
0.358895
0.357128
0.355419
0.353768
0.352175
0.350642
0.349167
0.34775
0.34639
0.345091
0.343872
0.372911
0.370642
0.368414
0.366214
0.364045
0.361914
0.359829
0.357798
0.355829
0.353926
0.352093
0.350332
0.348643
0.347026
0.34548
0.344004
0.3426
0.341287
0.372857
0.370433
0.367964
0.365467
0.36298
0.36053
0.358142
0.355831
0.353609
0.351483
0.349454
0.347522
0.345686
0.343943
0.34229
0.340725
0.339246
0.33787
0.372694
0.369887
0.366932
0.36393
0.360972
0.358105
0.355356
0.352741
0.350265
0.347932
0.345737
0.343677
0.341746
0.339938
0.338245
0.336662
0.335185
0.333826
0.372231
0.368603
0.364822
0.361103
0.357545
0.354193
0.351068
0.348173
0.345506
0.343058
0.340819
0.338775
0.336913
0.33522
0.333683
0.33229
0.331028
0.329902
0.370947
0.365687
0.360552
0.355803
0.351493
0.347649
0.344272
0.341341
0.338826
0.336691
0.334901
0.333423
0.332224
0.331276
0.33055
0.330022
0.329668
0.329477
0.366354
0.35712
0.349252
0.342902
0.337994
0.334402
0.331978
0.330567
0.330031
0.330245
0.331105
0.332516
0.334399
0.336684
0.339309
0.34222
0.345365
0.348737
0.329178
0.293648
0.265349
0.242405
0.223553
0.207896
0.194777
0.183699
0.174286
0.166246
0.159348
0.153411
0.148285
0.14385
0.140007
0.136675
0.133785
0.13128
0.0164342
0.0209032
0.0243791
0.0301655
0.0392806
0.0532915
0.0690776
0.0867803
0.106761
0.12966
0.150628
0.171799
0.193492
0.215742
0.238546
0.261896
0.285786
0.310214
0.335178
0.360678
0.386718
0.413302
0.440434
0.468123
0.496377
0.525206
0.554624
0.584642
0.615276
0.646541
0.678456
0.711038
0.744308
0.778286
0.812993
0.848453
0.884686
0.921716
0.959565
0.998256
1.03781
1.07824
1.11957
1.16182
1.20499
1.24909
1.29412
1.34008
1.38695
1.43472
1.48337
1.53284
1.58309
1.63405
1.68566
1.73784
1.79047
1.84348
1.89675
1.9502
2.00378
2.05746
2.11132
2.16524
2.21748
2.26759
2.31514
2.35967
2.40074
2.43794
2.47084
2.49909
2.52238
2.54046
2.55315
2.56032
2.56195
2.55807
2.54879
2.53429
2.51478
2.49056
2.46195
2.42928
2.39292
2.35326
2.31067
2.26552
2.21818
2.16901
2.11834
2.0665
2.01379
1.96054
1.90711
1.85375
1.80143
1.75074
1.70461
1.66421
1.62555
1.58765
1.55023
1.51325
1.47673
1.44068
1.40515
1.37018
1.33579
1.30202
1.2689
1.23643
1.20465
1.17357
1.1432
1.11355
1.08462
1.05642
1.02895
1.00222
0.976206
0.95092
0.926352
0.902494
0.879339
0.856878
0.835101
0.813996
0.793553
0.773758
0.7546
0.736064
0.718139
0.700809
0.684062
0.667882
0.652255
0.637168
0.622606
0.608555
0.595001
0.581929
0.569326
0.557177
0.54547
0.534192
0.523328
0.512866
0.502794
0.493099
0.48377
0.474794
0.466159
0.457856
0.449873
0.442199
0.434825
0.427739
0.420934
0.414398
0.408129
0.402117
0.396348
0.390813
0.385503
0.380407
0.375516
0.37082
0.366308
0.361966
0.357779
0.353729
0.349789
0.345927
0.342091
0.338203
0.334133
0.329618
0.324272
0.315835
0.0255894
0.0489506
0.0696609
0.0876341
0.106544
0.12813
0.152579
0.179251
0.207447
0.236631
0.266301
0.296552
0.327434
0.358969
0.391174
0.424066
0.457663
0.491981
0.527038
0.562849
0.599428
0.636792
0.674954
0.71393
0.753737
0.794391
0.835911
0.878317
0.921633
0.965883
1.01109
1.0573
1.10453
1.15282
1.20222
1.25276
1.3045
1.35748
1.41177
1.46742
1.52449
1.58304
1.64316
1.7049
1.76833
1.83355
1.90061
1.9696
2.04059
2.11364
2.18883
2.26622
2.34586
2.42778
2.51203
2.59859
2.68747
2.77861
2.87195
2.96737
3.06471
3.16374
3.26421
3.36484
3.46523
3.56476
3.66264
3.75799
3.84986
3.93724
4.01909
4.0944
4.16221
4.22164
4.27195
4.31252
4.34292
4.36289
4.37234
4.37135
4.36017
4.33915
4.3088
4.26968
4.22245
4.16778
4.10639
4.039
3.96632
3.88905
3.80788
3.72349
3.63652
3.54769
3.45779
3.36763
3.27801
3.19132
3.10847
3.02852
2.95006
2.87259
2.796
2.72037
2.64579
2.57237
2.50022
2.42943
2.36008
2.29222
2.22591
2.16119
2.09808
2.03659
1.97675
1.91854
1.86198
1.80703
1.75371
1.70198
1.65183
1.60323
1.55616
1.51058
1.46648
1.42382
1.38258
1.3427
1.30418
1.26696
1.23102
1.19633
1.16284
1.13054
1.09938
1.06932
1.04035
1.01242
0.985509
0.959577
0.934596
0.910535
0.887365
0.865058
0.843583
0.822914
0.803024
0.783885
0.765473
0.747762
0.730728
0.714347
0.698597
0.683454
0.668898
0.654908
0.641462
0.628542
0.616128
0.604201
0.592733
0.581705
0.571102
0.560918
0.551136
0.541742
0.532717
0.524043
0.515701
0.507671
0.49993
0.492452
0.485205
0.47815
0.471234
0.464386
0.457516
0.450505
0.443524
0.437342
0.0464386
0.0902607
0.118487
0.142742
0.167548
0.19471
0.224573
0.256734
0.290639
0.325859
0.362133
0.399374
0.437558
0.476679
0.516746
0.557772
0.599771
0.642758
0.686746
0.731746
0.77777
0.824826
0.872923
0.922067
0.972267
1.02353
1.07586
1.12927
1.18378
1.23938
1.2961
1.35396
1.41298
1.47317
1.53457
1.59721
1.66113
1.72636
1.79295
1.86096
1.93043
2.00143
2.07404
2.14831
2.22434
2.30219
2.38197
2.46377
2.54768
2.63381
2.72226
2.81314
2.90655
3.0026
3.10138
3.20297
3.30744
3.41482
3.52512
3.6383
3.75425
3.87279
3.99368
4.11587
4.23893
4.36214
4.4846
4.60521
4.72275
4.83588
4.9432
5.0433
5.1348
5.21643
5.28707
5.34579
5.39188
5.42487
5.44456
5.45095
5.44428
5.42497
5.39361
5.35091
5.29769
5.23482
5.16322
5.08382
4.99755
4.90531
4.80798
4.7064
4.60133
4.49359
4.38382
4.27192
4.16053
4.05031
3.94179
3.83518
3.73017
3.6267
3.52481
3.4246
3.3262
3.2297
3.13521
3.0428
2.95254
2.86449
2.77867
2.6951
2.61381
2.53479
2.45804
2.38353
2.31126
2.24119
2.1733
2.10755
2.0439
1.98231
1.92275
1.86515
1.80949
1.75572
1.70378
1.65362
1.60522
1.5585
1.51343
1.46996
1.42804
1.38763
1.34868
1.31114
1.27497
1.24013
1.20657
1.17425
1.14313
1.11317
1.08433
1.05658
1.02986
1.00416
0.979432
0.955642
0.932759
0.910749
0.889583
0.869229
0.849658
0.830841
0.812752
0.795364
0.77865
0.762587
0.747149
0.732312
0.718053
0.704347
0.691173
0.678502
0.666322
0.65462
0.643374
0.632561
0.622159
0.612144
0.602493
0.593178
0.58417
0.575434
0.566933
0.558624
0.550484
0.542534
0.53511
0.529308
0.0646516
0.12449
0.161402
0.19204
0.221875
0.253277
0.286993
0.322984
0.360961
0.40064
0.44182
0.484393
0.528305
0.573533
0.62007
0.66792
0.717087
0.767577
0.819394
0.872541
0.927015
0.982815
1.03994
1.09837
1.1581
1.21913
1.28144
1.34501
1.40984
1.47592
1.54322
1.61175
1.6815
1.75245
1.82461
1.89799
1.97258
2.04841
2.12548
2.20382
2.28347
2.36447
2.44686
2.5307
2.61607
2.70303
2.79169
2.88214
2.97451
3.06891
3.16549
3.26439
3.36578
3.46983
3.5767
3.68656
3.79957
3.91588
4.03559
4.15875
4.28536
4.41531
4.54838
4.6839
4.82144
4.96027
5.09939
5.23757
5.37339
5.50524
5.63139
5.7501
5.85962
5.95833
6.04476
6.1177
6.17619
6.21959
6.24755
6.26003
6.25724
6.23964
6.20787
6.16277
6.10525
6.03634
5.9571
5.86859
5.7719
5.66805
5.55802
5.44278
5.32305
5.19952
5.07328
4.94578
4.81799
4.69083
4.56481
4.44025
4.31725
4.19594
4.07647
3.95901
3.84369
3.73067
3.62005
3.51193
3.40639
3.30347
3.20324
3.10569
3.01086
2.91874
2.82931
2.74257
2.65847
2.57699
2.4981
2.42173
2.34786
2.27642
2.20737
2.14065
2.07621
2.01398
1.95391
1.89595
1.84002
1.78609
1.73407
1.68393
1.6356
1.58903
1.54415
1.50092
1.45929
1.41919
1.38058
1.34341
1.30763
1.2732
1.24005
1.20816
1.17747
1.14795
1.11955
1.09223
1.06595
1.04068
1.01638
0.993012
0.970541
0.948936
0.928165
0.908197
0.889001
0.87055
0.852815
0.835769
0.819385
0.803637
0.7885
0.773948
0.759955
0.746504
0.733574
0.72114
0.709177
0.697661
0.686568
0.675873
0.665551
0.655577
0.645932
0.636611
0.627649
0.619173
0.611575
0.605842
0.0776943
0.151996
0.196477
0.232844
0.26709
0.301989
0.338685
0.377493
0.418388
0.46125
0.505965
0.552456
0.600675
0.650598
0.702215
0.755521
0.810513
0.867189
0.925543
0.985567
1.04725
1.11057
1.17552
1.24206
1.31016
1.37981
1.45095
1.52355
1.59757
1.67298
1.74971
1.82774
1.90702
1.98751
2.06916
2.15194
2.23582
2.32077
2.40677
2.4938
2.58187
2.67098
2.76114
2.8524
2.9448
3.03841
3.13331
3.2296
3.32742
3.42692
3.52826
3.63164
3.73727
3.84541
3.95631
4.07022
4.18743
4.30818
4.43273
4.56126
4.69388
4.8306
4.97126
5.1156
5.26323
5.41341
5.5651
5.71696
5.86737
6.01446
6.15623
6.29059
6.41545
6.52884
6.62901
6.71444
6.78399
6.83684
6.87256
6.89103
6.89247
6.87734
6.84638
6.80048
6.74064
6.66799
6.58371
6.48894
6.38486
6.27259
6.1531
6.02752
5.89629
5.76176
5.62466
5.48602
5.34682
5.20781
5.06953
4.93235
4.79655
4.66237
4.53005
4.39982
4.27186
4.14636
4.02346
3.90327
3.7859
3.67142
3.55988
3.45132
3.34576
3.2432
3.14364
3.04705
2.95342
2.86271
2.77487
2.68986
2.60763
2.52813
2.45129
2.37706
2.30537
2.23616
2.16936
2.10491
2.04275
1.9828
1.925
1.8693
1.81561
1.76388
1.71406
1.66606
1.61984
1.57534
1.53249
1.49124
1.45154
1.41334
1.37657
1.34119
1.30715
1.2744
1.2429
1.21259
1.18345
1.15541
1.12845
1.10252
1.07759
1.05361
1.03056
1.0084
0.987085
0.966596
0.946899
0.927963
0.909759
0.89226
0.875437
0.859262
0.843711
0.828758
0.814378
0.800545
0.787235
0.774425
0.76209
0.750209
0.738762
0.727737
0.717131
0.706968
0.697326
0.688377
0.680486
0.674427
0.0875644
0.172487
0.222636
0.263593
0.301504
0.339273
0.378309
0.419208
0.462179
0.507265
0.554454
0.603725
0.655061
0.708451
0.76389
0.821374
0.880897
0.942454
1.00603
1.07162
1.13919
1.20872
1.28018
1.35352
1.42871
1.50568
1.58438
1.66475
1.74672
1.83022
1.91517
2.00149
2.08909
2.17791
2.26785
2.35884
2.45079
2.54363
2.6373
2.73172
2.82686
2.92268
3.01915
3.11627
3.21405
3.31254
3.4118
3.51192
3.61304
3.7153
3.81892
3.92413
4.03119
4.14043
4.2522
4.36687
4.48483
4.60651
4.73229
4.86253
4.99753
5.13747
5.28232
5.43217
5.58675
5.74538
5.90697
6.07007
6.23286
6.39322
6.54883
6.69723
6.836
6.96284
7.07567
7.17275
7.25272
7.31465
7.35802
7.38271
7.3889
7.37712
7.34814
7.30293
7.24256
7.16821
7.08117
6.98263
6.87379
6.75598
6.62969
6.49746
6.36012
6.21896
6.07507
5.92939
5.78277
5.63588
5.48929
5.34343
5.19866
5.05533
4.91373
4.77413
4.63679
4.5019
4.36966
4.24021
4.11368
3.99015
3.8697
3.75239
3.63825
3.52729
3.41951
3.31492
3.21347
3.11516
3.01993
2.92774
2.83855
2.75229
2.66891
2.58834
2.51052
2.43538
2.36286
2.29288
2.22538
2.16028
2.09752
2.03702
1.97872
1.92254
1.86842
1.81629
1.76609
1.71775
1.67121
1.6264
1.58328
1.54177
1.50182
1.46339
1.4264
1.39081
1.35658
1.32364
1.29195
1.26148
1.23216
1.20397
1.17685
1.15076
1.12568
1.10156
1.07836
1.05605
1.0346
1.01397
0.99413
0.975055
0.956713
0.939075
0.922115
0.905802
0.890108
0.875007
0.860475
0.846489
0.833027
0.820072
0.807611
0.795639
0.78417
0.773248
0.762971
0.753518
0.7452
0.738601
0.0945154
0.1864
0.240171
0.284263
0.324835
0.364722
0.405445
0.447784
0.492125
0.53865
0.587443
0.638542
0.691967
0.747729
0.805836
0.86629
0.929092
0.994236
1.06171
1.13151
1.20359
1.27794
1.3545
1.43323
1.51408
1.59697
1.68183
1.76858
1.85713
1.94737
2.0392
2.13251
2.22718
2.32309
2.42011
2.51811
2.61698
2.71658
2.8168
2.91751
3.01862
3.12003
3.22167
3.32347
3.42541
3.52749
3.62973
3.73219
3.83499
3.93828
4.04227
4.14722
4.25346
4.36135
4.47135
4.58395
4.6997
4.81917
4.94297
5.07167
5.20579
5.34574
5.49177
5.64431
5.80324
5.968
6.13748
6.31011
6.48384
6.65624
6.82463
6.98616
7.13803
7.27759
7.40247
7.51068
7.6007
7.6715
7.72255
7.75369
7.76517
7.75752
7.73158
7.6884
7.62911
7.55489
7.46716
7.36716
7.25585
7.13561
7.00742
6.87277
6.73288
6.5889
6.44184
6.29259
6.14192
5.99051
5.83893
5.68767
5.53716
5.3878
5.23994
5.09389
4.94994
4.80834
4.6693
4.533
4.3996
4.26921
4.14193
4.01783
3.89696
3.77936
3.66503
3.55399
3.44623
3.34171
3.24041
3.14229
3.04731
2.95541
2.86653
2.78062
2.69762
2.61744
2.54003
2.46531
2.39322
2.32367
2.25661
2.19195
2.12962
2.06955
2.01168
1.95592
1.90222
1.85049
1.80069
1.75274
1.70657
1.66213
1.61936
1.57819
1.53857
1.50044
1.46375
1.42845
1.39448
1.3618
1.33036
1.30011
1.27101
1.24302
1.21609
1.19018
1.16526
1.14129
1.11823
1.09605
1.07471
1.05419
1.03445
1.01546
0.997193
0.979617
0.962701
0.94642
0.930749
0.915667
0.901155
0.8872
0.873793
0.86094
0.848665
0.837021
0.826114
0.816108
0.807254
0.799989
0.0987684
0.194505
0.249993
0.295695
0.337788
0.378926
0.420623
0.463748
0.508797
0.556051
0.605668
0.657738
0.712314
0.769432
0.829114
0.891378
0.956233
1.02368
1.09372
1.16634
1.24152
1.31922
1.39941
1.48204
1.56703
1.65432
1.74381
1.83542
1.92904
2.02454
2.12179
2.22066
2.32099
2.42264
2.52543
2.62919
2.73376
2.83895
2.9446
3.05052
3.15655
3.26254
3.36835
3.47385
3.57895
3.68359
3.78773
3.8914
3.99466
4.09764
4.20052
4.30358
4.40716
4.51169
4.61769
4.72578
4.83666
4.9511
5.06994
5.19405
5.32423
5.46124
5.60565
5.75829
5.91933
6.08833
6.26419
6.44518
6.62896
6.8127
6.99329
7.16743
7.33191
7.4837
7.62014
7.73902
7.83871
7.91815
7.97681
8.01456
8.03167
8.02879
8.00678
7.96677
7.91004
7.83754
7.75114
7.65251
7.54294
7.42404
7.29712
7.16352
7.02438
6.88077
6.73364
6.58384
6.43213
6.27917
6.12558
5.97187
5.81851
5.66593
5.51454
5.36467
5.21666
5.07078
4.92728
4.78637
4.64822
4.51298
4.38078
4.25171
4.12584
4.00322
3.88389
3.76786
3.65514
3.54572
3.43958
3.33668
3.237
3.14048
3.04707
2.95673
2.86938
2.78497
2.70343
2.62469
2.54868
2.47533
2.40456
2.33631
2.27049
2.20704
2.14588
2.08695
2.03017
1.97546
1.92277
1.87203
1.82316
1.77611
1.7308
1.68719
1.6452
1.60479
1.56589
1.52845
1.49242
1.45774
1.42436
1.39224
1.36134
1.33159
1.30297
1.27542
1.24892
1.22341
1.19887
1.17525
1.15252
1.13065
1.1096
1.08935
1.06987
1.0511
1.03303
1.01564
0.998891
0.982774
0.967269
0.952366
0.938063
0.92437
0.911319
0.898968
0.887416
0.876805
0.867328
0.859316
0.10061
0.197726
0.253306
0.299206
0.341679
0.383173
0.425108
0.468361
0.513472
0.560775
0.610474
0.662698
0.717529
0.775026
0.835231
0.898176
0.963885
1.03237
1.10365
1.17771
1.25454
1.33411
1.4164
1.50135
1.58891
1.67898
1.77149
1.86634
1.96339
2.06253
2.16361
2.26646
2.37092
2.4768
2.5839
2.69201
2.80093
2.91043
3.02027
3.13024
3.24009
3.34962
3.4586
3.56685
3.67419
3.78049
3.88564
3.98959
4.09234
4.19397
4.29463
4.39455
4.49407
4.59366
4.69387
4.79544
4.89921
5.00616
5.11741
5.23416
5.35763
5.489
5.6293
5.77986
5.94122
6.11309
6.29439
6.48313
6.67657
6.8714
7.06392
7.25035
7.42699
7.59052
7.73793
7.86682
7.97554
8.0631
8.12906
8.17322
8.19603
8.19833
8.18088
8.14503
8.0924
8.02433
7.94242
7.8482
7.74309
7.6285
7.50572
7.37595
7.24029
7.09975
6.95525
6.80761
6.65758
6.50581
6.35292
6.19945
6.0459
5.89272
5.74033
5.58911
5.43942
5.29155
5.14579
5.00237
4.86149
4.72334
4.58805
4.45574
4.32652
4.20045
4.07758
3.95796
3.84161
3.72853
3.61872
3.51215
3.40881
3.30866
3.21165
3.11775
3.02689
2.93902
2.85408
2.77201
2.69273
2.61618
2.54228
2.47097
2.40218
2.33582
2.27184
2.21015
2.15069
2.09338
2.03816
1.98496
1.93371
1.88434
1.83679
1.791
1.7469
1.70444
1.66356
1.62419
1.58629
1.5498
1.51467
1.48085
1.44829
1.41694
1.38676
1.35771
1.32975
1.30282
1.2769
1.25195
1.22793
1.2048
1.18254
1.1611
1.14046
1.12057
1.10141
1.08296
1.06519
1.04808
1.03163
1.01582
1.00066
0.986156
0.972346
0.959287
0.94707
0.935806
0.925641
0.916832
0.100342
0.19703
0.251446
0.296363
0.338201
0.379217
0.420693
0.463439
0.507984
0.554674
0.603736
0.655324
0.709545
0.766479
0.826188
0.888721
0.954117
1.02241
1.09361
1.16774
1.2448
1.32477
1.40762
1.49332
1.58181
1.67302
1.76687
1.86324
1.96203
2.06309
2.16628
2.27142
2.37832
2.48678
2.59659
2.7075
2.81926
2.93162
3.04429
3.15699
3.26944
3.38135
3.49243
3.60242
3.71107
3.81814
3.92347
4.0269
4.12837
4.22786
4.32547
4.42138
4.51589
4.60945
4.70266
4.79629
4.89134
4.98898
5.09061
5.19783
5.31236
5.43598
5.57033
5.71735
5.878
6.0522
6.2388
6.43543
6.63874
6.84473
7.04905
7.24733
7.43549
7.60994
7.7673
7.90494
8.02143
8.11604
8.18852
8.23849
8.2667
8.27433
8.26251
8.23262
8.18612
8.12447
8.04912
7.96151
7.863
7.75489
7.63841
7.51469
7.38477
7.24961
7.11008
6.96699
6.82106
6.67294
6.52322
6.37246
6.22115
6.06976
5.91874
5.76847
5.61932
5.47163
5.3257
5.18177
5.04009
4.90086
4.76424
4.63037
4.49939
4.37138
4.24643
4.12458
4.00589
3.89037
3.77803
3.66889
3.56292
3.4601
3.36042
3.26381
3.17026
3.0797
2.99208
2.90735
2.82544
2.74629
2.66984
2.59601
2.52474
2.45596
2.38959
2.32558
2.26384
2.20431
2.14691
2.09159
2.03827
1.98688
1.93737
1.88966
1.8437
1.79942
1.75677
1.71568
1.67611
1.63799
1.60128
1.56592
1.53187
1.49907
1.46747
1.43704
1.40774
1.37951
1.35232
1.32613
1.30091
1.27662
1.25322
1.23066
1.20893
1.18798
1.16779
1.14833
1.12959
1.11155
1.09419
1.07751
1.06152
1.04622
1.03166
1.0179
1.00499
0.993038
0.982139
0.972507
0.0982072
0.193283
0.245709
0.288812
0.329231
0.369089
0.409497
0.451159
0.494551
0.540001
0.587744
0.637948
0.690741
0.746223
0.804473
0.865559
0.929538
0.996455
1.06635
1.13924
1.21514
1.29406
1.37599
1.46088
1.54871
1.6394
1.73289
1.82908
1.92785
2.02907
2.13259
2.23824
2.34582
2.45512
2.56591
2.67792
2.7909
2.90453
3.01851
3.13251
3.24619
3.35921
3.47121
3.58185
3.6908
3.79775
3.90243
4.00461
4.10413
4.2009
4.29492
4.38632
4.47535
4.56241
4.6481
4.73324
4.81888
4.9064
4.99746
5.09408
5.19858
5.31348
5.4413
5.58466
5.74493
5.92221
6.11521
6.32083
6.53477
6.75216
6.96789
7.17704
7.37524
7.559
7.7245
7.86868
7.9908
8.09047
8.16768
8.22274
8.25646
8.26994
8.26443
8.24125
8.20182
8.14755
8.07984
8.00003
7.90942
7.80922
7.70057
7.58455
7.46212
7.33419
7.20159
7.06507
6.92531
6.78295
6.63856
6.49267
6.34578
6.19835
6.05082
5.9036
5.75706
5.61155
5.46738
5.32484
5.18417
5.0456
4.90933
4.77551
4.64431
4.51583
4.39017
4.26742
4.14765
4.03088
3.91717
3.80651
3.69893
3.59442
3.49295
3.39451
3.29906
3.20658
3.11701
3.0303
2.94641
2.86527
2.78683
2.71103
2.63779
2.56706
2.49877
2.43285
2.36924
2.30786
2.24865
2.19154
2.13647
2.08337
2.03217
1.98282
1.93525
1.8894
1.84521
1.80262
1.76157
1.72202
1.6839
1.64717
1.61178
1.57767
1.5448
1.51313
1.48261
1.45319
1.42485
1.39753
1.37121
1.34583
1.32136
1.29777
1.27501
1.25306
1.2319
1.2115
1.19184
1.1729
1.15468
1.13717
1.12037
1.10431
1.08901
1.07453
1.06092
1.04826
1.0366
1.02614
0.0943243
0.187045
0.237145
0.27808
0.316651
0.354897
0.393772
0.433867
0.475591
0.519246
0.565063
0.613219
0.663856
0.717091
0.773021
0.83173
0.893291
0.957765
1.0252
1.09565
1.16913
1.24565
1.32523
1.40785
1.49348
1.58208
1.67358
1.7679
1.86493
1.96456
2.06664
2.171
2.27746
2.3858
2.49578
2.60715
2.71961
2.83284
2.94651
3.06027
3.17371
3.28646
3.3981
3.50822
3.61642
3.7223
3.82553
3.92578
4.02281
4.11645
4.20663
4.29342
4.37702
4.45779
4.53633
4.61346
4.69032
4.76841
4.84966
4.93651
5.0319
5.13921
5.2622
5.40399
5.56627
5.74912
5.95121
6.16802
6.39366
6.62239
6.84838
7.06622
7.27131
7.45995
7.6292
7.77705
7.90255
8.00547
8.08608
8.14495
8.18299
8.20138
8.20138
8.18433
8.15161
8.10458
8.04457
7.97283
7.89058
7.79895
7.69898
7.59167
7.4779
7.35851
7.23425
7.10583
6.97387
6.83896
6.70165
6.56243
6.42178
6.28014
6.13795
5.99561
5.85349
5.71194
5.5713
5.43185
5.29386
5.15757
5.02321
4.89095
4.76096
4.6334
4.50837
4.386
4.26635
4.1495
4.0355
3.92439
3.81619
3.71092
3.60857
3.50914
3.41261
3.31896
3.22816
3.14016
3.05493
2.97242
2.89257
2.81534
2.74066
2.66847
2.59872
2.53133
2.46626
2.40342
2.34277
2.28423
2.22774
2.17323
2.12065
2.06993
2.02101
1.97383
1.92833
1.88446
1.84216
1.80136
1.76203
1.72411
1.68754
1.65229
1.61829
1.58551
1.55391
1.52343
1.49404
1.4657
1.43837
1.412
1.38655
1.36199
1.33829
1.31542
1.29335
1.27206
1.25154
1.23176
1.21272
1.19441
1.17684
1.16003
1.14401
1.12882
1.11451
1.10112
1.08869
1.0774
0.0895059
0.178545
0.226507
0.265494
0.302212
0.338662
0.375722
0.41391
0.453587
0.495031
0.538461
0.584058
0.631972
0.682334
0.735252
0.790826
0.849141
0.910274
0.974289
1.04124
1.11118
1.18413
1.26011
1.33912
1.42116
1.50619
1.59418
1.68504
1.7787
1.87505
1.97397
2.07529
2.17884
2.28443
2.39181
2.50073
2.6109
2.722
2.83368
2.94555
3.05721
3.16822
3.27812
3.38647
3.49279
3.59664
3.69759
3.79527
3.88937
3.97967
4.06606
4.14855
4.22734
4.3028
4.37552
4.4464
4.51667
4.588
4.66261
4.74334
4.83386
4.93836
5.06192
5.20785
5.37765
5.57066
5.78391
6.01218
6.24887
6.48714
6.72053
6.94346
7.15147
7.34128
7.51058
7.65796
7.78287
7.88537
7.96602
8.02563
8.06526
8.08615
8.08959
8.07693
8.04947
8.00853
7.95533
7.89106
7.81681
7.73362
7.64243
7.54411
7.43948
7.32926
7.21414
7.09474
6.97162
6.84532
6.71632
6.58509
6.45206
6.31764
6.18225
6.04628
5.91008
5.774
5.63837
5.5035
5.36964
5.23707
5.106
4.97666
4.84921
4.72384
4.60068
4.47986
4.36149
4.24564
4.13241
4.02184
3.91399
3.80887
3.70652
3.60693
3.51012
3.41606
3.32474
3.23613
3.15021
3.06693
2.98626
2.90815
2.83255
2.7594
2.68865
2.62025
2.55413
2.49025
2.42852
2.36891
2.31134
2.25575
2.20209
2.15029
2.1003
2.05205
2.0055
1.96057
1.91723
1.8754
1.83505
1.79612
1.75856
1.72232
1.68735
1.65362
1.62107
1.58966
1.55935
1.53011
1.50186
1.47459
1.44825
1.42282
1.39826
1.37454
1.35164
1.32954
1.30821
1.28765
1.26784
1.24878
1.23048
1.21296
1.19623
1.18034
1.16532
1.15121
1.13803
1.12593
0.0838047
0.168292
0.214432
0.251868
0.286915
0.321537
0.35662
0.392669
0.430024
0.468946
0.509643
0.552293
0.597049
0.644045
0.693401
0.745224
0.799612
0.856652
0.916422
0.97899
1.04441
1.11274
1.184
1.25822
1.33541
1.41555
1.49862
1.58457
1.67333
1.76484
1.85897
1.95559
2.05456
2.15569
2.25876
2.36353
2.46973
2.57704
2.68511
2.79356
2.90196
3.00986
3.11679
3.22224
3.32571
3.42671
3.52478
3.61949
3.71051
3.79759
3.88063
3.95966
4.03491
4.1068
4.17604
4.24365
4.31107
4.38021
4.45365
4.53477
4.62797
4.73816
4.87123
5.03002
5.21511
5.42441
5.65321
5.89483
6.14167
6.38633
6.62233
6.84451
7.04912
7.23366
7.39665
7.53742
7.65597
7.75279
7.8287
7.88477
7.92217
7.94217
7.94607
7.93517
7.91071
7.87389
7.82586
7.76766
7.70028
7.62463
7.54154
7.45176
7.35599
7.25487
7.14897
7.03883
6.92495
6.80778
6.68774
6.56525
6.44068
6.31442
6.18684
6.05829
5.92912
5.79965
5.67021
5.54108
5.41255
5.28488
5.15829
5.03302
4.90927
4.78721
4.66701
4.54881
4.43275
4.31892
4.20742
4.09834
3.99172
3.88763
3.7861
3.68716
3.59081
3.49707
3.40594
3.31739
3.23141
3.14798
3.06706
2.98862
2.91262
2.83901
2.76774
2.69878
2.63205
2.56752
2.50512
2.4448
2.3865
2.33016
2.27574
2.22316
2.17238
2.12334
2.07598
2.03024
1.98609
1.94345
1.90229
1.86255
1.82417
1.78713
1.75136
1.71682
1.68348
1.65128
1.62018
1.59013
1.56109
1.53303
1.50592
1.47971
1.45438
1.42991
1.40626
1.38341
1.36136
1.34007
1.31955
1.2998
1.28081
1.2626
1.2452
1.22864
1.21294
1.19812
1.1842
1.17132
0.0772885
0.156865
0.201432
0.2376
0.271148
0.303995
0.337061
0.37087
0.405763
0.44199
0.479753
0.519221
0.560544
0.603855
0.649276
0.696919
0.746887
0.799274
0.854169
0.911651
0.971789
1.03464
1.10027
1.1687
1.23995
1.31405
1.39099
1.47075
1.55328
1.63853
1.72642
1.81685
1.90969
2.00479
2.10198
2.20102
2.30168
2.40366
2.50664
2.61024
2.71405
2.81761
2.92044
3.02203
3.12185
3.2194
3.3142
3.40583
3.49396
3.57838
3.65905
3.73609
3.80984
3.88091
3.95022
4.01906
4.08918
4.16293
4.24342
4.33473
4.44198
4.57105
4.7269
4.91093
5.12158
5.35425
5.60188
5.85626
6.10924
6.35374
6.58424
6.79687
6.98917
7.15986
7.30852
7.4353
7.54082
7.62598
7.69184
7.73962
7.77055
7.78589
7.78687
7.77471
7.75052
7.7154
7.67033
7.61626
7.55401
7.48437
7.40804
7.32566
7.2378
7.145
7.04773
6.94643
6.84151
6.73334
6.62228
6.50867
6.39284
6.27511
6.15582
6.03528
5.91379
5.79166
5.66918
5.54663
5.42429
5.3024
5.1812
5.06093
4.94179
4.82398
4.70766
4.593
4.48014
4.3692
4.26031
4.15354
4.04899
3.94672
3.84678
3.74922
3.65407
3.56134
3.47105
3.3832
3.29778
3.21478
3.13418
3.05596
2.98007
2.9065
2.83519
2.76611
2.6992
2.63443
2.57175
2.5111
2.45243
2.39568
2.34082
2.28777
2.2365
2.18694
2.13904
2.09275
2.04803
2.00481
1.96305
1.9227
1.88371
1.84605
1.80965
1.77448
1.7405
1.70765
1.67589
1.64517
1.61547
1.58674
1.55896
1.53209
1.5061
1.48097
1.45666
1.43316
1.41046
1.38852
1.36736
1.34697
1.32734
1.3085
1.29047
1.27326
1.2569
1.2414
1.22677
1.21315
0.0703067
0.144812
0.187918
0.22296
0.255137
0.286309
0.317417
0.349009
0.381432
0.414936
0.449714
0.485926
0.523712
0.563198
0.604502
0.647732
0.692994
0.740384
0.789997
0.841917
0.896227
0.952999
1.0123
1.07417
1.13868
1.20584
1.27567
1.34819
1.42338
1.50121
1.58164
1.6646
1.75
1.83773
1.92765
2.01958
2.11333
2.20863
2.3052
2.4027
2.50074
2.5989
2.69669
2.79364
2.88922
2.98295
3.07439
3.16316
3.24901
3.33186
3.4118
3.48916
3.56455
3.63889
3.71347
3.79004
3.87089
3.95902
4.05833
4.17389
4.3114
4.47691
4.67201
4.89489
5.14018
5.39979
5.66445
5.92532
6.17507
6.40838
6.62185
6.81369
6.98327
7.13076
7.25681
7.36236
7.44852
7.51646
7.56741
7.60259
7.62319
7.63038
7.62527
7.6089
7.58228
7.54631
7.50186
7.44969
7.39051
7.32496
7.25362
7.177
7.09558
7.00976
6.91994
6.82645
6.7296
6.62971
6.52705
6.42189
6.31451
6.20516
6.09412
5.98166
5.86803
5.75351
5.63836
5.52282
5.40716
5.29162
5.17642
5.06179
4.94793
4.83505
4.72333
4.61293
4.504
4.39669
4.29112
4.1874
4.08563
3.98588
3.88822
3.79272
3.69941
3.60833
3.51951
3.43296
3.34868
3.26668
3.18694
3.10945
3.03419
2.96113
2.89024
2.82149
2.75483
2.69024
2.62766
2.56706
2.50837
2.45157
2.39659
2.34339
2.29192
2.24213
2.19397
2.14739
2.10235
2.05878
2.01666
1.97592
1.93652
1.89843
1.86159
1.82597
1.7915
1.75815
1.72587
1.69464
1.66441
1.63516
1.60684
1.57942
1.55289
1.5272
1.50234
1.47828
1.45501
1.43252
1.41079
1.38982
1.36962
1.35021
1.33158
1.31377
1.29679
1.28065
1.26535
1.25103
0.0632164
0.132547
0.174175
0.20815
0.239078
0.268731
0.298047
0.327577
0.357673
0.388579
0.420479
0.453521
0.487833
0.523529
0.560716
0.599497
0.639972
0.682238
0.72639
0.772519
0.820712
0.871053
0.923618
0.978477
1.03569
1.09532
1.15739
1.22195
1.28901
1.35858
1.43064
1.50518
1.58213
1.66144
1.74302
1.82675
1.91247
2
2.0891
2.17949
2.27083
2.36274
2.45481
2.54657
2.63759
2.72744
2.81578
2.90236
2.98713
3.07021
3.15201
3.23324
3.31494
3.39858
3.48605
3.57981
3.68298
3.79955
3.93472
4.09464
4.28499
4.50697
4.75705
5.02765
5.30848
5.58864
5.85856
6.11116
6.34202
6.54908
6.73193
6.89121
7.02816
7.1442
7.24084
7.31951
7.38157
7.42826
7.46079
7.48025
7.48769
7.48409
7.47038
7.44744
7.41607
7.37701
7.33097
7.27857
7.22037
7.15689
7.08859
7.01587
6.93909
6.85859
6.77464
6.6875
6.59742
6.50462
6.4093
6.31168
6.21196
6.11035
6.00705
5.90227
5.79624
5.68917
5.58129
5.47281
5.36397
5.25498
5.14606
5.03741
4.92924
4.82174
4.7151
4.60947
4.50502
4.40189
4.30023
4.20013
4.10172
4.00508
3.91029