/*--------------------------------*- C++ -*----------------------------------*\
| =========                 |                                                 |
| \\      /  F ield         | OpenFOAM: The Open Source CFD Toolbox           |
|  \\    /   O peration     | Version:  1.4.2                                 |
|   \\  /    A nd           | Web:      http://www.openfoam.org               |
|    \\/     M anipulation  |                                                 |
\*---------------------------------------------------------------------------*/
FoamFile
{
    version     2.0;
    format      ascii;
    class       volScalarField;
    object      p;
    location    "300";
}
// * * * * * * * * * * * * * * * * * * * * * * * * * * * * * * * * * * * * * //

dimensions      [0 2 -2 0 0 0 0];

internalField   nonuniform List<scalar> 
12225
(
-1.42099
-2.25771
-2.50475
-2.59886
-2.69995
-2.79777
-2.88212
-2.95656
-3.02485
-3.08854
-3.14839
-3.20516
-3.25967
-3.31289
-3.36626
-3.42237
-3.48549
-3.57748
-1.58733
-2.26486
-2.50273
-2.60045
-2.70057
-2.79669
-2.87987
-2.95339
-3.02082
-3.08366
-3.14271
-3.19871
-3.25244
-3.30487
-3.35732
-3.41207
-3.47311
-3.55553
-1.7664
-2.2608
-2.49191
-2.59809
-2.69839
-2.7931
-2.87563
-2.94886
-3.01602
-3.07856
-3.13728
-3.1929
-3.24616
-3.29785
-3.34898
-3.40089
-3.45436
-3.51145
-1.92366
-2.27844
-2.49482
-2.60534
-2.70407
-2.7963
-2.87751
-2.95004
-3.01667
-3.07874
-3.13703
-3.19218
-3.24482
-3.29554
-3.34491
-3.39332
-3.43961
-3.48166
-2.05373
-2.31008
-2.50565
-2.61671
-2.71304
-2.80242
-2.88185
-2.95326
-3.01897
-3.08022
-3.13772
-3.19206
-3.24371
-3.29305
-3.34024
-3.38497
-3.42526
-3.45796
-2.16719
-2.35025
-2.52168
-2.63024
-2.72347
-2.80982
-2.88738
-2.95757
-3.02232
-3.08269
-3.13935
-3.19277
-3.24332
-3.29116
-3.33617
-3.37768
-3.41365
-3.44136
-2.26801
-2.39644
-2.54268
-2.64595
-2.73523
-2.81812
-2.89344
-2.96219
-3.02585
-3.0853
-3.14108
-3.19357
-3.243
-3.28939
-3.33246
-3.37145
-3.4047
-3.4303
-2.34483
-2.43898
-2.56447
-2.6613
-2.7465
-2.82605
-2.8991
-2.96633
-3.02885
-3.08735
-3.14228
-3.19392
-3.24242
-3.28771
-3.32945
-3.36695
-3.39899
-3.42433
-2.40658
-2.47783
-2.58596
-2.67652
-2.75768
-2.83401
-2.90484
-2.97051
-3.03183
-3.08935
-3.14342
-3.19425
-3.24191
-3.28629
-3.32707
-3.36368
-3.39526
-3.42099
-2.46765
-2.52044
-2.61134
-2.69461
-2.77104
-2.84364
-2.91186
-2.97567
-3.03556
-3.09191
-3.14497
-3.19488
-3.24165
-3.28517
-3.32517
-3.36124
-3.39287
-3.41952
-2.52731
-2.56592
-2.6406
-2.71564
-2.7867
-2.85512
-2.92031
-2.98193
-3.04014
-3.09515
-3.14708
-3.19599
-3.24189
-3.28466
-3.32411
-3.36002
-3.39212
-3.42015
-2.5848
-2.61302
-2.67327
-2.73954
-2.80472
-2.86857
-2.93035
-2.98945
-3.04574
-3.09921
-3.1499
-3.19779
-3.24286
-3.28502
-3.32418
-3.36026
-3.39319
-3.42287
-2.63944
-2.66033
-2.70841
-2.76591
-2.82494
-2.88397
-2.94204
-2.99834
-3.05247
-3.10426
-3.15361
-3.20047
-3.24477
-3.28648
-3.32558
-3.36208
-3.39605
-3.42748
-2.69036
-2.7062
-2.7446
-2.7939
-2.84682
-2.901
-2.95523
-3.00856
-3.06039
-3.11038
-3.15835
-3.20419
-3.24781
-3.28921
-3.3284
-3.36547
-3.40052
-3.4336
-2.73631
-2.74877
-2.77985
-2.8221
-2.86935
-2.91893
-2.96943
-3.0198
-3.06931
-3.11751
-3.16412
-3.20898
-3.252
-3.29317
-3.33253
-3.37018
-3.4062
-3.44066
-2.77542
-2.78568
-2.81164
-2.84838
-2.89088
-2.93648
-2.98367
-3.03135
-3.07873
-3.12527
-3.17063
-3.21462
-3.25712
-3.29811
-3.33761
-3.37571
-3.41246
-3.44789
-2.80476
-2.81375
-2.83659
-2.86971
-2.90888
-2.95158
-2.99629
-3.04192
-3.08762
-3.13285
-3.17723
-3.22052
-3.26259
-3.30341
-3.34297
-3.38131
-3.41846
-3.4544
-2.81866
-2.82731
-2.84925
-2.88119
-2.91914
-2.96066
-3.0043
-3.04897
-3.09387
-3.13843
-3.18229
-3.2252
-3.26703
-3.3077
-3.34721
-3.38556
-3.42274
-3.45872
-2.81532
-2.82456
-2.84782
-2.8811
-2.92004
-2.96224
-3.00631
-3.05125
-3.09629
-3.14091
-3.18479
-3.22769
-3.26949
-3.31012
-3.34957
-3.38782
-3.42485
-3.4606
-2.79824
-2.80902
-2.83569
-2.87242
-2.91406
-2.95828
-3.00389
-3.04995
-3.0958
-3.14099
-3.18525
-3.22841
-3.27035
-3.31104
-3.35045
-3.38858
-3.42541
-3.46086
-2.77005
-2.78371
-2.81614
-2.85821
-2.9038
-2.95096
-2.9988
-3.04651
-3.09354
-3.13957
-3.18441
-3.22796
-3.27015
-3.31095
-3.35036
-3.38838
-3.42501
-3.46014
-2.7321
-2.75075
-2.79187
-2.84095
-2.8913
-2.94194
-2.99239
-3.04199
-3.09036
-3.13733
-3.18284
-3.22683
-3.2693
-3.31024
-3.34967
-3.3876
-3.42403
-3.45884
-2.68475
-2.71188
-2.7653
-2.82265
-2.87808
-2.93243
-2.98561
-3.03712
-3.0868
-3.1347
-3.18085
-3.22529
-3.26804
-3.30914
-3.3486
-3.38646
-3.4227
-3.45719
-2.62756
-2.66885
-2.73872
-2.80484
-2.86517
-2.92319
-2.97902
-3.03229
-3.08317
-3.1319
-3.17863
-3.22347
-3.26648
-3.30772
-3.34724
-3.38504
-3.4211
-3.45526
-2.55938
-2.62368
-2.7142
-2.78858
-2.85324
-2.9147
-2.97293
-3.02772
-3.07958
-3.12898
-3.17617
-3.22132
-3.26454
-3.30592
-3.3455
-3.38329
-3.41923
-3.45307
-2.47852
-2.57878
-2.69332
-2.77432
-2.84242
-2.90696
-2.96724
-3.02322
-3.07583
-3.12573
-3.17326
-3.21865
-3.26205
-3.30357
-3.34327
-3.38114
-3.41708
-3.45073
-2.38156
-2.53781
-2.67727
-2.76197
-2.83264
-2.89994
-2.96196
-3.0189
-3.07212
-3.12247
-3.17035
-3.21602
-3.25966
-3.30142
-3.34137
-3.37953
-3.41576
-3.44961
-2.25692
-2.50663
-2.66865
-2.75242
-2.82459
-2.89436
-2.95786
-3.01555
-3.06925
-3.11997
-3.16813
-3.214
-3.25782
-3.29976
-3.33995
-3.37846
-3.4152
-3.44978
-2.09602
-2.49588
-2.67577
-2.75344
-2.82521
-2.89635
-2.96051
-3.01837
-3.07214
-3.1229
-3.17108
-3.21697
-3.26081
-3.3028
-3.34313
-3.38198
-3.41951
-3.45601
-1.93313
-2.47933
-2.67574
-2.75073
-2.82306
-2.89556
-2.96049
-3.01874
-3.0728
-3.12383
-3.17227
-3.21841
-3.26249
-3.30474
-3.34535
-3.38464
-3.42307
-3.46453
-3.83351
-3.8359
-3.84211
-3.84864
-3.85586
-3.86697
-3.88438
-3.90892
-3.94154
-3.98289
-4.03321
-4.09276
-4.16188
-4.24067
-4.32916
-4.42725
-4.53482
-4.65165
-4.77752
-4.91217
-5.05533
-5.20671
-5.36603
-5.53298
-5.7073
-5.88869
-6.07687
-6.27157
-6.47252
-6.67944
-6.89205
-7.11007
-7.3332
-7.56114
-7.79352
-8.02998
-8.27009
-8.51337
-8.75931
-9.00729
-9.25663
-9.50652
-9.75607
-10.0042
-10.2498
-10.4913
-10.7272
-10.9557
-11.1747
-11.3818
-11.5744
-11.7495
-11.9039
-12.0337
-12.1351
-12.2037
-12.235
-12.2238
-12.1652
-12.0542
-11.886
-11.6559
-11.3584
-10.9884
-10.5428
-10.0199
-9.4197
-8.74357
-7.99447
-7.17693
-6.29688
-5.36155
-4.37921
-3.35894
-2.3103
-1.24308
-0.167027
0.908467
1.97454
3.02305
4.04675
5.03931
5.99543
6.91083
7.78219
8.60716
9.38423
10.1127
10.7924
11.424
12.0086
12.5476
13.043
13.4968
13.9117
14.2897
14.6337
14.9488
15.2409
15.5075
15.7447
15.955
16.141
16.3049
16.4489
16.5749
16.6847
16.78
16.8622
16.9328
16.9929
17.0438
17.0864
17.1216
17.1505
17.1736
17.1918
17.2055
17.2155
17.2221
17.2259
17.2272
17.2264
17.2238
17.2197
17.2143
17.2079
17.2006
17.1926
17.1841
17.1751
17.1659
17.1564
17.1468
17.1371
17.1273
17.1176
17.108
17.0985
17.0891
17.0798
17.0707
17.0617
17.0529
17.0442
17.0357
17.0274
17.0192
17.0111
17.0032
16.9953
16.9876
16.9799
16.9723
16.9647
16.9571
16.9495
16.9419
16.9342
16.9265
16.9186
16.9107
16.9027
16.8945
16.8863
16.878
16.8697
16.8614
16.8533
16.8455
16.8384
16.8324
16.828
16.8263
16.8287
16.8379
16.8583
16.8974
16.9758
17.1114
-3.81563
-3.82178
-3.82924
-3.83582
-3.84067
-3.84662
-3.85765
-3.87585
-3.90227
-3.93747
-3.98193
-4.03601
-4.0999
-4.17365
-4.25721
-4.35047
-4.45327
-4.56538
-4.68657
-4.81656
-4.95508
-5.10184
-5.25656
-5.41895
-5.58873
-5.76563
-5.94938
-6.1397
-6.33635
-6.53906
-6.74757
-6.96162
-7.18092
-7.40518
-7.63407
-7.86726
-8.10435
-8.34491
-8.58844
-8.83441
-9.08218
-9.33101
-9.58008
-9.82841
-10.0749
-10.3183
-10.557
-10.7895
-11.0138
-11.2278
-11.4288
-11.6143
-11.7811
-11.9256
-12.0443
-12.133
-12.1871
-12.2021
-12.1729
-12.0946
-11.9627
-11.7721
-11.5165
-11.1904
-10.7907
-10.3154
-9.76381
-9.13646
-8.43557
-7.66486
-6.82949
-5.93595
-4.99186
-4.00572
-2.98666
-1.94415
-0.88773
0.173273
1.22996
2.27405
3.29806
4.29539
5.26038
6.18836
7.07561
7.91937
8.71771
9.4695
10.1743
10.8324
11.4444
12.0115
12.5353
13.0171
13.4589
13.863
14.235
14.576
14.8848
15.1636
15.414
15.6382
15.8385
16.0169
16.1754
16.3157
16.4396
16.5486
16.6441
16.7275
16.8
16.8626
16.9165
16.9625
17.0016
17.0344
17.0617
17.0841
17.1022
17.1165
17.1274
17.1355
17.141
17.1443
17.1458
17.1456
17.144
17.1412
17.1374
17.1328
17.1274
17.1215
17.1152
17.1085
17.1015
17.0943
17.0869
17.0795
17.0719
17.0644
17.0568
17.0493
17.0418
17.0344
17.027
17.0197
17.0124
17.0052
16.9981
16.991
16.984
16.9769
16.9699
16.9629
16.9559
16.9489
16.9418
16.9346
16.9273
16.92
16.9125
16.9049
16.8972
16.8893
16.8813
16.8733
16.8652
16.8571
16.8492
16.8417
16.8348
16.829
16.8249
16.8235
16.8263
16.8359
16.8565
16.8948
16.9683
17.0715
-3.77574
-3.7909
-3.80511
-3.81533
-3.82535
-3.8381
-3.85541
-3.87858
-3.9087
-3.94655
-3.9927
-4.04759
-4.11148
-4.18453
-4.26678
-4.35818
-4.45865
-4.56804
-4.68615
-4.81279
-4.94772
-5.09072
-5.24155
-5.39996
-5.56572
-5.73857
-5.91829
-6.10464
-6.29738
-6.49626
-6.70106
-6.91152
-7.12737
-7.34834
-7.57413
-7.80442
-8.03883
-8.27698
-8.5184
-8.76258
-9.00892
-9.25673
-9.50524
-9.75353
-10.0006
-10.2452
-10.4859
-10.7213
-10.9495
-11.1684
-11.3757
-11.5689
-11.7448
-11.9004
-12.0319
-12.1355
-12.2069
-12.2415
-12.2345
-12.1812
-12.077
-11.9165
-11.6929
-11.4005
-11.0361
-10.5971
-10.0823
-9.49183
-8.82734
-8.092
-7.29049
-6.42885
-5.51431
-4.55509
-3.56007
-2.53858
-1.50006
-0.4538
0.59128
1.62686
2.64534
3.64003
4.60512
5.53578
6.42815
7.27926
8.08701
8.85006
9.5678
10.2402
10.8677
11.4511
11.9913
12.4901
12.9504
13.3773
13.7721
14.1327
14.4612
14.7602
15.0308
15.2751
15.4951
15.6927
15.8698
16.0281
16.1693
16.2948
16.4061
16.5044
16.5912
16.6673
16.734
16.7921
16.8426
16.8861
16.9235
16.9553
16.9823
17.0049
17.0237
17.039
17.0513
17.061
17.0684
17.0737
17.0772
17.0792
17.0799
17.0794
17.0779
17.0756
17.0726
17.0689
17.0648
17.0602
17.0553
17.0501
17.0447
17.0391
17.0333
17.0274
17.0215
17.0154
17.0094
17.0033
16.9971
16.991
16.9848
16.9786
16.9723
16.9661
16.9597
16.9534
16.9469
16.9404
16.9338
16.9271
16.9202
16.9132
16.9061
16.8988
16.8913
16.8837
16.876
16.8681
16.8602
16.8523
16.8446
16.8372
16.8305
16.8248
16.8207
16.8193
16.822
16.8309
16.8499
16.8834
16.9442
17.01
-3.73293
-3.75661
-3.78011
-3.79775
-3.81518
-3.83556
-3.86013
-3.88986
-3.92564
-3.96823
-4.01823
-4.07611
-4.14219
-4.21669
-4.29973
-4.39135
-4.49152
-4.60017
-4.71719
-4.84243
-4.97573
-5.11689
-5.26574
-5.42206
-5.58567
-5.75635
-5.9339
-6.11811
-6.30878
-6.50568
-6.70861
-6.91733
-7.1316
-7.35118
-7.5758
-7.80515
-8.03892
-8.27673
-8.51818
-8.76277
-9.00997
-9.25915
-9.50957
-9.76039
-10.0106
-10.2592
-10.5048
-10.7459
-10.9808
-11.2075
-11.4238
-11.6272
-11.8147
-11.9833
-12.1292
-12.2488
-12.3376
-12.3911
-12.4044
-12.3727
-12.2913
-12.1541
-11.9538
-11.6846
-11.3428
-10.9254
-10.431
-9.85912
-9.21133
-8.49058
-7.70147
-6.85002
-5.94355
-4.99039
-3.99963
-2.98081
-1.94357
-0.897425
0.148539
1.18585
2.2068
3.20459
4.17338
5.10831
6.00546
6.86188
7.67544
8.44475
9.16912
9.84834
10.4827
11.0731
11.6208
12.1314
12.6074
13.048
13.454
13.8263
14.1672
14.4786
14.7618
15.0187
15.2512
15.461
15.65
15.8198
15.9721
16.1083
16.2299
16.3383
16.4345
16.5198
16.5952
16.6616
16.7199
16.7709
16.8154
16.854
16.8874
16.9161
16.9405
16.9612
16.9786
16.993
17.0048
17.0144
17.0218
17.0275
17.0316
17.0344
17.0359
17.0364
17.036
17.0348
17.033
17.0306
17.0277
17.0243
17.0206
17.0166
17.0123
17.0079
17.0032
16.9984
16.9934
16.9883
16.9831
16.9779
16.9725
16.9671
16.9615
16.9559
16.9502
16.9444
16.9384
16.9324
16.9262
16.9199
16.9134
16.9067
16.8999
16.8929
16.8857
16.8783
16.8708
16.8631
16.8553
16.8475
16.8399
16.8325
16.8257
16.8199
16.8156
16.8137
16.8155
16.8226
16.8379
16.8637
16.9084
16.9427
-3.7097
-3.74103
-3.77295
-3.79752
-3.82158
-3.84865
-3.87981
-3.91581
-3.95736
-4.00507
-4.05948
-4.12103
-4.19006
-4.26681
-4.35145
-4.44409
-4.54474
-4.65341
-4.77002
-4.89451
-5.02675
-5.16661
-5.31394
-5.4686
-5.63042
-5.79924
-5.97489
-6.1572
-6.34599
-6.54109
-6.7423
-6.94943
-7.16227
-7.38061
-7.60421
-7.83282
-8.06615
-8.30388
-8.54564
-8.79101
-9.0395
-9.29053
-9.54344
-9.79748
-10.0517
-10.3052
-10.5565
-10.8045
-11.0473
-11.2831
-11.5098
-11.7249
-11.9256
-12.1086
-12.2706
-12.4076
-12.5153
-12.5888
-12.6233
-12.6136
-12.5548
-12.4401
-12.2615
-12.0129
-11.6898
-11.2889
-10.8082
-10.2472
-9.60711
-8.89104
-8.10366
-7.25129
-6.3416
-5.38333
-4.38605
-3.35973
-2.31444
-1.26003
-0.205844
0.839443
1.868
2.87296
3.8485
4.7898
5.69291
6.55498
7.37398
8.14838
8.87755
9.56118
10.2004
10.7982
11.358
11.8811
12.3657
12.8135
13.2263
13.6058
13.954
14.2726
14.5634
14.828
15.0683
15.2859
15.4826
15.6601
15.82
15.9636
16.0925
16.2079
16.311
16.4029
16.4846
16.5572
16.6214
16.6781
16.728
16.7718
16.8101
16.8434
16.8723
16.8972
16.9185
16.9367
16.9521
16.965
16.9756
16.9843
16.9912
16.9965
17.0005
17.0033
17.0051
17.0059
17.006
17.0053
17.0041
17.0023
17
16.9974
16.9944
16.991
16.9875
16.9836
16.9796
16.9754
16.9711
16.9666
16.9619
16.9571
16.9522
16.9471
16.9419
16.9366
16.9311
16.9254
16.9196
16.9136
16.9075
16.9011
16.8945
16.8878
16.8808
16.8736
16.8662
16.8586
16.8509
16.8432
16.8355
16.828
16.821
16.8149
16.81
16.8071
16.8073
16.8116
16.8221
16.8389
16.8679
16.8767
-3.71756
-3.75304
-3.78985
-3.81883
-3.84735
-3.87912
-3.91512
-3.95592
-4.0021
-4.05413
-4.11246
-4.17745
-4.24941
-4.32857
-4.41513
-4.50918
-4.61081
-4.72003
-4.83683
-4.96115
-5.09294
-5.23209
-5.37851
-5.53208
-5.69269
-5.8602
-6.0345
-6.21543
-6.40287
-6.59667
-6.79668
-7.00273
-7.21465
-7.43228
-7.65541
-7.88383
-8.1173
-8.35554
-8.59824
-8.84503
-9.09548
-9.34909
-9.60527
-9.86332
-10.1224
-10.3816
-10.6397
-10.8954
-11.1471
-11.3931
-11.6312
-11.859
-12.0738
-12.2724
-12.4514
-12.6066
-12.7337
-12.8279
-12.8837
-12.896
-12.8593
-12.7661
-12.6078
-12.3773
-12.0696
-11.6807
-11.2083
-10.6515
-10.0117
-9.29205
-8.49762
-7.63524
-6.71322
-5.741
-4.72885
-3.68742
-2.62732
-1.55887
-0.491713
0.565301
1.60421
2.61808
3.60125
4.54905
5.45738
6.32376
7.14618
7.92318
8.65512
9.34265
9.99024
10.5984
11.1651
11.6921
12.1804
12.6321
13.049
13.4328
13.7855
14.1088
14.4045
14.6742
14.9198
15.1429
15.3452
15.5283
15.6938
15.8431
15.9775
16.0983
16.2067
16.3038
16.3907
16.4681
16.5371
16.5984
16.6528
16.7008
16.7431
16.7804
16.813
16.8414
16.8661
16.8875
16.9059
16.9216
16.9349
16.9462
16.9555
16.9631
16.9692
16.974
16.9777
16.9803
16.982
16.9829
16.9831
16.9826
16.9817
16.9802
16.9783
16.976
16.9734
16.9705
16.9673
16.9639
16.9603
16.9564
16.9524
16.9482
16.9438
16.9393
16.9345
16.9296
16.9245
16.9192
16.9138
16.9081
16.9022
16.8961
16.8898
16.8832
16.8764
16.8693
16.862
16.8546
16.8469
16.8391
16.8314
16.8237
16.8164
16.8097
16.804
16.7998
16.7978
16.7988
16.8037
16.8115
16.8264
16.8143
-3.7524
-3.78884
-3.82741
-3.85856
-3.88946
-3.92381
-3.96258
-4.00629
-4.05543
-4.1104
-4.17155
-4.23918
-4.31351
-4.39475
-4.48305
-4.57851
-4.68119
-4.79114
-4.90835
-5.03281
-5.16446
-5.30326
-5.44913
-5.602
-5.76178
-5.92839
-6.10172
-6.28168
-6.46817
-6.66107
-6.86028
-7.06566
-7.2771
-7.49444
-7.71755
-7.94623
-8.1803
-8.41954
-8.66368
-8.91242
-9.16539
-9.42216
-9.6822
-9.94488
-10.2095
-10.475
-10.7405
-11.0047
-11.2661
-11.5229
-11.7732
-12.0146
-12.2442
-12.4591
-12.6557
-12.8298
-12.977
-13.0922
-13.1698
-13.2042
-13.1894
-13.1175
-12.9787
-12.7649
-12.4703
-12.0904
-11.6222
-11.0647
-10.4193
-9.68953
-8.88097
-8.00125
-7.05957
-6.0663
-5.03265
-3.97012
-2.89004
-1.80325
-0.719658
0.351741
1.40278
2.42639
3.4174
4.37125
5.28337
6.15268
6.97766
7.75761
8.49605
9.19154
9.84358
10.4532
11.0209
11.5488
12.0384
12.4916
12.9103
13.2962
13.6513
13.9772
14.2758
14.5488
14.7979
15.0247
15.2308
15.418
15.5875
15.741
15.8796
16.0046
16.1171
16.2184
16.3093
16.3907
16.4636
16.5287
16.5867
16.6383
16.684
16.7245
16.7603
16.7917
16.8193
16.8435
16.8645
16.8827
16.8983
16.9118
16.9232
16.9328
16.9408
16.9474
16.9527
16.9569
16.9601
16.9624
16.9639
16.9647
16.9649
16.9645
16.9636
16.9622
16.9605
16.9584
16.956
16.9533
16.9504
16.9472
16.9437
16.94
16.9362
16.9321
16.9278
16.9232
16.9185
16.9136
16.9084
16.9031
16.8975
16.8916
16.8855
16.8791
16.8724
16.8655
16.8583
16.8509
16.8432
16.8354
16.8275
16.8195
16.8117
16.8043
16.7975
16.7918
16.7874
16.7846
16.784
16.7833
16.7857
16.7566
-3.80589
-3.84061
-3.87834
-3.90981
-3.94132
-3.97647
-4.01625
-4.0612
-4.11177
-4.16833
-4.23116
-4.30046
-4.37641
-4.45913
-4.54872
-4.64527
-4.74882
-4.85939
-4.97699
-5.10162
-5.23325
-5.37185
-5.51737
-5.66977
-5.82899
-5.99496
-6.16763
-6.34694
-6.5328
-6.72515
-6.9239
-7.12899
-7.34031
-7.55775
-7.78122
-8.01057
-8.24566
-8.48632
-8.73233
-8.98346
-9.23939
-9.49977
-9.76412
-10.0319
-10.3024
-10.5749
-10.8483
-11.1214
-11.3929
-11.6611
-11.924
-12.1792
-12.4242
-12.6557
-12.8702
-13.0635
-13.2311
-13.3676
-13.4671
-13.5235
-13.5306
-13.4796
-13.3598
-13.1616
-12.8786
-12.5053
-12.0382
-11.4762
-10.8207
-10.0755
-9.24733
-8.34463
-7.37782
-6.35835
-5.29854
-4.21086
-3.10748
-1.99992
-0.898097
0.188865
1.25226
2.2849
3.28326
4.24293
5.15832
6.03276
6.86525
7.65095
8.3917
9.08745
9.73888
10.3473
10.9142
11.4412
11.9303
12.3832
12.8019
13.1882
13.544
13.871
14.1709
14.4456
14.6967
14.9258
15.1345
15.3244
15.4968
15.6533
15.795
15.9232
16.039
16.1435
16.2376
16.3223
16.3984
16.4666
16.5276
16.5822
16.6308
16.6741
16.7125
16.7466
16.7767
16.8032
16.8265
16.8469
16.8647
16.8801
16.8934
16.9048
16.9145
16.9227
16.9296
16.9352
16.9397
16.9433
16.946
16.9479
16.9491
16.9497
16.9498
16.9493
16.9484
16.9471
16.9454
16.9434
16.9411
16.9384
16.9355
16.9324
16.9289
16.9253
16.9214
16.9173
16.9129
16.9083
16.9035
16.8984
16.893
16.8874
16.8815
16.8753
16.8688
16.862
16.8549
16.8475
16.8398
16.8318
16.8237
16.8154
16.8071
16.7988
16.7908
16.7833
16.7763
16.7698
16.7637
16.755
16.7467
16.7037
-3.86844
-3.89921
-3.93388
-3.96408
-3.9948
-4.02942
-4.06895
-4.11395
-4.16487
-4.22201
-4.28557
-4.3557
-4.43249
-4.51603
-4.60636
-4.70352
-4.80755
-4.91845
-5.03624
-5.16091
-5.29244
-5.43083
-5.57604
-5.72806
-5.88683
-6.05233
-6.22453
-6.40338
-6.58886
-6.7809
-6.97948
-7.18454
-7.39602
-7.61386
-7.83798
-8.06831
-8.30472
-8.54711
-8.7953
-9.04912
-9.30832
-9.57259
-9.84154
-10.1147
-10.3914
-10.671
-10.9525
-11.2349
-11.5167
-11.7963
-12.0719
-12.3411
-12.6012
-12.8493
-13.0816
-13.294
-13.4816
-13.6391
-13.7603
-13.8385
-13.867
-13.8362
-13.7343
-13.5507
-13.2777
-12.9092
-12.4408
-11.8712
-11.2018
-10.4375
-9.58558
-8.65607
-7.66071
-6.61194
-5.52332
-4.4086
-3.2811
-2.15301
-1.03313
0.0692861
1.14408
2.18463
3.19154
4.16041
5.08362
5.96228
6.79532
7.58113
8.32066
9.01459
9.66399
10.2702
10.835
11.36
11.8472
12.2985
12.7159
13.1012
13.4565
13.7833
14.0835
14.3588
14.6108
14.8411
15.0514
15.2431
15.4176
15.5762
15.7203
15.8509
15.9692
16.0763
16.1731
16.2604
16.3391
16.4099
16.4735
16.5306
16.5818
16.6275
16.6683
16.7047
16.737
16.7656
16.791
16.8134
16.833
16.8502
16.8653
16.8783
16.8896
16.8992
16.9075
16.9144
16.9202
16.925
16.9288
16.9318
16.934
16.9355
16.9365
16.9368
16.9367
16.9361
16.9352
16.9338
16.9321
16.93
16.9276
16.9249
16.922
16.9188
16.9153
16.9115
16.9075
16.9032
16.8987
16.8939
16.8888
16.8834
16.8777
16.8716
16.8653
16.8586
16.8516
16.8442
16.8365
16.8284
16.82
16.8113
16.8023
16.7932
16.7839
16.7744
16.7648
16.7545
16.7432
16.7274
16.71
16.6556
-3.93036
-3.95549
-3.98527
-4.01289
-4.04187
-4.07516
-4.11377
-4.15822
-4.20885
-4.26591
-4.32954
-4.39982
-4.47679
-4.5605
-4.65097
-4.74822
-4.85227
-4.96311
-5.08076
-5.20522
-5.33647
-5.47451
-5.61934
-5.77093
-5.92927
-6.09436
-6.26616
-6.44469
-6.6299
-6.8218
-7.02036
-7.22557
-7.4374
-7.65581
-7.88078
-8.11225
-8.35017
-8.59445
-8.84498
-9.10164
-9.36422
-9.63249
-9.90613
-10.1847
-10.4677
-10.7544
-11.044
-11.3354
-11.6273
-11.9182
-12.2061
-12.4888
-12.7638
-13.0278
-13.2772
-13.5078
-13.7147
-13.8923
-14.034
-14.133
-14.1818
-14.1698
-14.084
-13.9133
-13.6486
-13.2828
-12.8105
-12.2303
-11.5441
-10.7576
-9.87958
-8.92153
-7.89673
-6.81779
-5.69998
-4.55898
-3.40933
-2.26351
-1.1272
-0.00886142
1.07909
2.13092
3.14446
4.11595
5.04145
5.92029
6.75174
7.53558
8.27252
8.96346
9.6097
10.2128
10.7744
11.2965
11.781
12.2299
12.6451
13.0287
13.3825
13.7084
14.008
14.2831
14.5353
14.7662
14.9774
15.1702
15.3461
15.5063
15.6521
15.7847
15.9051
16.0143
16.1132
16.2028
16.2837
16.3568
16.4227
16.4821
16.5354
16.5833
16.6263
16.6647
16.6991
16.7297
16.7569
16.7811
16.8025
16.8214
16.838
16.8526
16.8654
16.8764
16.886
16.8942
16.9012
16.9071
16.912
16.916
16.9192
16.9216
16.9234
16.9246
16.9252
16.9254
16.9251
16.9243
16.9232
16.9217
16.9198
16.9176
16.9151
16.9123
16.9092
16.9059
16.9022
16.8983
16.894
16.8895
16.8846
16.8795
16.874
16.8681
16.862
16.8554
16.8485
16.8411
16.8333
16.825
16.8164
16.8072
16.7976
16.7875
16.7768
16.7655
16.7532
16.7393
16.7231
16.7008
16.6756
16.6119
-3.98299
-4.00136
-4.02483
-4.04898
-4.07584
-4.10762
-4.14515
-4.18883
-4.23888
-4.29545
-4.35864
-4.42851
-4.50508
-4.58839
-4.67845
-4.77527
-4.87887
-4.98924
-5.10639
-5.23032
-5.36104
-5.49854
-5.64282
-5.79389
-5.95174
-6.11638
-6.2878
-6.46602
-6.65103
-6.84285
-7.04147
-7.2469
-7.45915
-7.67821
-7.90408
-8.13675
-8.37619
-8.62237
-8.87523
-9.13468
-9.40059
-9.67277
-9.95096
-10.2348
-10.5238
-10.8173
-11.1146
-11.4146
-11.7161
-12.0176
-12.3172
-12.6126
-12.9013
-13.1801
-13.4452
-13.6925
-13.917
-14.1127
-14.2732
-14.3911
-14.4583
-14.4624
-14.3894
-14.2282
-13.9688
-13.6025
-13.1226
-12.5286
-11.8233
-11.0132
-10.1088
-9.12341
-8.07217
-6.96737
-5.82316
-4.65784
-3.48651
-2.32118
-1.17071
-0.0433229
1.05205
2.10967
3.12578
4.0972
5.02164
5.89818
6.7264
7.50654
8.23941
8.92613
9.56818
10.1672
10.725
11.2435
11.7248
12.1707
12.5833
12.9647
13.3166
13.6411
13.9397
14.2142
14.4662
14.6972
14.9088
15.1024
15.2793
15.4408
15.588
15.7222
15.8443
15.9554
16.0562
16.1478
16.2307
16.3059
16.3738
16.4352
16.4906
16.5405
16.5854
16.6258
16.662
16.6945
16.7235
16.7494
16.7725
16.793
16.8112
16.8273
16.8414
16.8538
16.8647
16.8741
16.8823
16.8893
16.8952
16.9002
16.9043
16.9077
16.9103
16.9123
16.9137
16.9146
16.9149
16.9148
16.9143
16.9133
16.912
16.9103
16.9083
16.9059
16.9032
16.9002
16.8969
16.8933
16.8894
16.8851
16.8805
16.8756
16.8703
16.8647
16.8587
16.8523
16.8454
16.8381
16.8302
16.8218
16.8128
16.8032
16.7928
16.7817
16.7697
16.7565
16.7416
16.7243
16.7035
16.6756
16.6436
16.5724
-4.01951
-4.0305
-4.04681
-4.06713
-4.09204
-4.12255
-4.15912
-4.20195
-4.25119
-4.30694
-4.36928
-4.43828
-4.51398
-4.5964
-4.68559
-4.78154
-4.88428
-4.99381
-5.11014
-5.23327
-5.36322
-5.49998
-5.64358
-5.794
-5.95127
-6.11541
-6.28641
-6.46431
-6.64912
-6.84085
-7.03953
-7.24519
-7.45784
-7.67751
-7.90423
-8.13801
-8.37886
-8.62679
-8.88179
-9.14381
-9.41276
-9.68852
-9.97086
-10.2595
-10.554
-10.8537
-11.158
-11.4658
-11.7759
-12.0868
-12.3967
-12.7033
-13.0039
-13.2954
-13.5741
-13.8355
-14.0747
-14.2855
-14.4613
-14.5947
-14.6768
-14.6922
-14.6268
-14.4703
-14.2121
-13.843
-13.3559
-12.7485
-12.0246
-11.1919
-10.262
-9.24943
-8.17068
-7.04186
-5.8778
-4.69505
-3.50843
-2.33043
-1.17124
-0.0393093
1.05819
2.11595
3.13023
4.09829
5.01843
5.88995
6.71274
7.4873
8.21459
8.89589
9.53276
10.1269
10.6803
11.1948
11.6725
12.1152
12.5251
12.9041
13.2541
13.577
13.8744
14.1482
14.3998
14.6308
14.8427
15.0369
15.2146
15.3772
15.5258
15.6614
15.7851
15.8978
16.0005
16.0938
16.1787
16.2557
16.3256
16.389
16.4463
16.4981
16.545
16.5872
16.6252
16.6595
16.6902
16.7178
16.7425
16.7646
16.7843
16.8018
16.8173
16.8311
16.8432
16.8539
16.8632
16.8713
16.8783
16.8843
16.8894
16.8936
16.8971
16.8999
16.902
16.9036
16.9046
16.9051
16.9052
16.9048
16.904
16.9028
16.9013
16.8994
16.8971
16.8945
16.8915
16.8883
16.8847
16.8807
16.8764
16.8718
16.8668
16.8614
16.8555
16.8492
16.8424
16.8351
16.8271
16.8186
16.8093
16.7992
16.7882
16.7761
16.7627
16.7476
16.7303
16.7097
16.6849
16.6519
16.6142
16.5366
-4.03484
-4.03865
-4.0479
-4.06441
-4.08759
-4.11697
-4.15253
-4.19435
-4.24253
-4.29717
-4.35836
-4.42615
-4.50063
-4.58184
-4.66981
-4.76458
-4.86617
-4.97459
-5.08986
-5.21198
-5.34097
-5.47684
-5.61961
-5.76928
-5.92589
-6.08944
-6.25997
-6.43749
-6.62204
-6.81363
-7.01232
-7.21812
-7.43108
-7.65124
-7.87866
-8.11336
-8.35541
-8.60484
-8.86167
-9.12591
-9.39752
-9.67642
-9.96243
-10.2553
-10.5547
-10.86
-11.1704
-11.4851
-11.8029
-12.1221
-12.4408
-12.7569
-13.0676
-13.3697
-13.6594
-13.9322
-14.1831
-14.4057
-14.5935
-14.7392
-14.8322
-14.854
-14.7908
-14.6339
-14.3714
-13.9936
-13.4945
-12.871
-12.1272
-11.2721
-10.3186
-9.28272
-8.18196
-7.03403
-5.85562
-4.66267
-3.4694
-2.28796
-1.12834
0.00132833
1.09459
2.14662
3.15405
4.11457
5.02684
5.89039
6.70535
7.47238
8.19256
8.86725
9.49807
10.0868
10.6353
11.1455
11.6194
12.0589
12.4661
12.8429
13.191
13.5124
13.8088
14.0819
14.3332
14.5642
14.7765
14.9713
15.1499
15.3136
15.4635
15.6005
15.7258
15.8402
15.9446
16.0398
16.1265
16.2054
16.2772
16.3425
16.4017
16.4555
16.5042
16.5482
16.5881
16.6241
16.6566
16.6859
16.7122
16.7358
16.757
16.776
16.7929
16.808
16.8214
16.8333
16.8437
16.853
16.861
16.868
16.874
16.8792
16.8835
16.8871
16.8901
16.8924
16.8941
16.8953
16.8959
16.8961
16.8959
16.8952
16.8942
16.8927
16.8909
16.8887
16.8861
16.8832
16.8799
16.8763
16.8723
16.868
16.8632
16.8581
16.8524
16.8462
16.8395
16.8322
16.8242
16.8154
16.8059
16.7953
16.7836
16.7706
16.7559
16.739
16.7194
16.6958
16.6673
16.6298
16.5871
16.5044
-4.02621
-4.0239
-4.02713
-4.0401
-4.06128
-4.08917
-4.12338
-4.16389
-4.21075
-4.26402
-4.32379
-4.39015
-4.46317
-4.54292
-4.62946
-4.72283
-4.82307
-4.93019
-5.04422
-5.16518
-5.29309
-5.42795
-5.56979
-5.71863
-5.87449
-6.0374
-6.20737
-6.38445
-6.56866
-6.76003
-6.95861
-7.16444
-7.37756
-7.59804
-7.82594
-8.06133
-8.30428
-8.55488
-8.81318
-9.07923
-9.35305
-9.63461
-9.92379
-10.2204
-10.5241
-10.8343
-11.1503
-11.4712
-11.7956
-12.122
-12.4485
-12.7727
-13.0917
-13.4023
-13.7007
-13.9824
-14.242
-14.4732
-14.6697
-14.8243
-14.9218
-14.9426
-14.875
-14.7102
-14.4357
-14.0414
-13.5216
-12.8755
-12.1085
-11.2309
-10.2573
-9.20445
-8.09071
-6.93409
-5.75154
-4.55857
-3.36878
-2.19369
-1.04269
0.0766772
1.15856
2.19862
3.19385
4.14231
5.04294
5.89543
6.70007
7.4576
8.16913
8.83607
9.46001
10.0427
10.5859
11.0917
11.5618
11.9982
12.4028
12.7775
13.1241
13.4444
13.74
14.0126
14.2639
14.4952
14.708
14.9037
15.0834
15.2483
15.3996
15.5382
15.6651
15.7813
15.8875
15.9846
16.0732
16.1541
16.2279
16.2951
16.3563
16.4119
16.4625
16.5085
16.5502
16.588
16.6222
16.6532
16.6811
16.7063
16.7291
16.7495
16.7678
16.7843
16.799
16.8121
16.8238
16.8341
16.8433
16.8513
16.8583
16.8644
16.8696
16.874
16.8777
16.8808
16.8832
16.8851
16.8864
16.8872
16.8875
16.8874
16.8868
16.8858
16.8845
16.8827
16.8805
16.878
16.875
16.8718
16.8682
16.8642
16.8597
16.8548
16.8493
16.8433
16.8367
16.8294
16.8213
16.8124
16.8026
16.7916
16.7793
16.7653
16.7494
16.7309
16.7091
16.6828
16.6509
16.6095
16.5624
16.4755
-3.99448
-3.98746
-3.98608
-3.99584
-4.01461
-4.04045
-4.07281
-4.11159
-4.15675
-4.20832
-4.26639
-4.33105
-4.40238
-4.48048
-4.5654
-4.65722
-4.75597
-4.8617
-4.97442
-5.09415
-5.22093
-5.35476
-5.49566
-5.64366
-5.79877
-5.96101
-6.13042
-6.30702
-6.49085
-6.68192
-6.8803
-7.08602
-7.29914
-7.51972
-7.74785
-7.98361
-8.22711
-8.47846
-8.73775
-9.0051
-9.28058
-9.56421
-9.85594
-10.1556
-10.4629
-10.7773
-11.0981
-11.4242
-11.7544
-12.0869
-12.4197
-12.7502
-13.0757
-13.3927
-13.6972
-13.9846
-14.2493
-14.4854
-14.6872
-14.8458
-14.938
-14.9466
-14.8654
-14.6826
-14.3857
-13.9657
-13.4186
-12.746
-11.9551
-11.0579
-10.07
-9.00881
-7.89256
-6.73883
-5.56397
-4.3826
-3.20742
-2.04904
-0.916099
0.184561
1.24767
2.26936
3.24696
4.17879
5.06397
5.9023
6.69412
7.44017
8.14155
8.7996
9.41584
9.99193
10.5296
11.0307
11.4971
11.9305
12.3327
12.7057
13.051
13.3704
13.6657
13.9383
14.1899
14.4219
14.6356
14.8324
15.0135
15.1799
15.3328
15.4732
15.602
15.7201
15.8283
15.9274
16.0181
16.1011
16.1769
16.2462
16.3094
16.3671
16.4196
16.4675
16.5111
16.5508
16.5868
16.6195
16.6491
16.676
16.7003
16.7222
16.742
16.7599
16.7759
16.7903
16.8032
16.8147
16.8249
16.834
16.842
16.8491
16.8552
16.8605
16.865
16.8689
16.872
16.8746
16.8766
16.878
16.8789
16.8793
16.8793
16.8788
16.8779
16.8765
16.8748
16.8727
16.8702
16.8674
16.8641
16.8604
16.8562
16.8515
16.8463
16.8404
16.8339
16.8267
16.8186
16.8096
16.7995
16.7881
16.7752
16.7604
16.7433
16.7232
16.6994
16.6707
16.6358
16.5909
16.54
16.4498
-3.9438
-3.93345
-3.92877
-3.93571
-3.95182
-3.97512
-4.0051
-4.04161
-4.08457
-4.13399
-4.18994
-4.25253
-4.32187
-4.39804
-4.48113
-4.57122
-4.66836
-4.77258
-4.88393
-5.00241
-5.12805
-5.26085
-5.40084
-5.54801
-5.7024
-5.864
-6.03284
-6.20895
-6.39234
-6.58304
-6.7811
-6.98656
-7.19947
-7.41991
-7.64796
-7.88372
-8.12733
-8.37893
-8.63867
-8.90671
-9.1832
-9.46822
-9.76179
-10.0638
-10.374
-10.6918
-11.0165
-11.3469
-11.6817
-12.019
-12.3566
-12.6917
-13.0215
-13.3422
-13.6498
-13.9394
-14.2054
-14.4426
-14.6451
-14.797
-14.8724
-14.8584
-14.7508
-14.537
-14.2058
-13.7508
-13.1705
-12.4694
-11.6567
-10.7457
-9.75223
-8.6936
-7.58704
-6.449
-5.29455
-4.13701
-2.98785
-1.85663
-0.751113
0.322562
1.35968
2.35679
3.31147
4.22222
5.08826
5.9094
6.68594
7.41856
8.10827
8.75627
9.36398
9.93291
10.4647
10.961
11.4235
11.854
12.2541
12.6255
12.9699
13.2889
13.5842
13.8574
14.1098
14.3428
14.5579
14.7562
14.939
15.1073
15.2621
15.4046
15.5355
15.6558
15.7662
15.8676
15.9605
16.0457
16.1238
16.1952
16.2606
16.3204
16.3751
16.425
16.4706
16.5121
16.55
16.5846
16.616
16.6445
16.6704
16.694
16.7153
16.7346
16.752
16.7677
16.7819
16.7946
16.806
16.8162
16.8252
16.8332
16.8403
16.8465
16.8519
16.8565
16.8605
16.8637
16.8664
16.8685
16.87
16.871
16.8716
16.8716
16.8711
16.8703
16.869
16.8674
16.8653
16.8629
16.86
16.8566
16.8527
16.8483
16.8433
16.8376
16.8313
16.8241
16.8161
16.807
16.7967
16.7849
16.7714
16.7559
16.7377
16.7162
16.6907
16.6597
16.6221
16.5742
16.52
16.4272
-3.88013
-3.86744
-3.86014
-3.86425
-3.87726
-3.89739
-3.92428
-3.9578
-3.99785
-4.04448
-4.09777
-4.15783
-4.22477
-4.29872
-4.37976
-4.46797
-4.56341
-4.6661
-4.77608
-4.89335
-5.01792
-5.14979
-5.28896
-5.43542
-5.58917
-5.75021
-5.91855
-6.09419
-6.27714
-6.46743
-6.66509
-6.87015
-7.08265
-7.30267