/*--------------------------------*- C++ -*----------------------------------*\
| =========                 |                                                 |
| \\      /  F ield         | OpenFOAM: The Open Source CFD Toolbox           |
|  \\    /   O peration     | Version:  1.4.2                                 |
|   \\  /    A nd           | Web:      http://www.openfoam.org               |
|    \\/     M anipulation  |                                                 |
\*---------------------------------------------------------------------------*/
FoamFile
{
    version     2.0;
    format      ascii;
    class       surfaceScalarField;
    object      phi;
    location    "300";
}
// * * * * * * * * * * * * * * * * * * * * * * * * * * * * * * * * * * * * * //

dimensions      [0 3 -1 0 0 0 0];

internalField   nonuniform List<scalar> 
24170
(
3.03915e-06
9.47449e-08
2.96648e-06
7.26672e-08
2.90175e-06
6.47358e-08
2.84036e-06
6.13904e-08
2.78238e-06
5.79719e-08
2.72806e-06
5.43249e-08
2.6773e-06
5.07599e-08
2.62994e-06
4.73578e-08
2.58583e-06
4.41139e-08
2.54481e-06
4.10237e-08
2.50672e-06
3.80864e-08
2.47143e-06
3.52968e-08
2.43879e-06
3.26415e-08
2.40869e-06
3.00939e-08
2.38109e-06
2.75995e-08
2.35607e-06
2.50277e-08
2.33392e-06
2.21493e-08
1.36405e-08
2.32027e-06
3.46195e-06
8.92347e-08
3.45374e-06
8.08794e-08
3.44417e-06
7.4309e-08
3.43337e-06
7.21931e-08
3.42159e-06
6.97496e-08
3.40923e-06
6.66852e-08
3.39651e-06
6.34844e-08
3.38356e-06
6.03119e-08
3.37049e-06
5.71857e-08
3.3574e-06
5.41143e-08
3.34438e-06
5.11077e-08
3.33151e-06
4.81658e-08
3.31888e-06
4.52717e-08
3.30659e-06
4.23817e-08
3.2948e-06
3.93957e-08
3.28375e-06
3.60752e-08
3.27412e-06
3.17752e-08
2.41764e-08
3.26359e-06
3.82428e-06
7.71445e-08
3.82617e-06
7.89921e-08
3.82534e-06
7.51412e-08
3.82361e-06
7.39249e-08
3.8212e-06
7.21572e-08
3.81829e-06
6.95997e-08
3.81501e-06
6.67628e-08
3.81146e-06
6.38638e-08
3.80769e-06
6.09524e-08
3.80376e-06
5.80514e-08
3.79969e-06
5.51769e-08
3.79553e-06
5.23291e-08
3.79131e-06
4.94868e-08
3.7871e-06
4.65968e-08
3.78295e-06
4.3547e-08
3.77891e-06
4.01102e-08
3.77483e-06
3.58523e-08
2.98905e-08
3.76912e-06
4.21685e-06
6.48561e-08
4.22197e-06
7.38675e-08
4.22401e-06
7.31084e-08
4.22507e-06
7.28629e-08
4.22553e-06
7.16919e-08
4.22553e-06
6.95991e-08
4.2252e-06
6.70974e-08
4.22462e-06
6.44394e-08
4.22387e-06
6.17096e-08
4.22297e-06
5.895e-08
4.22196e-06
5.61851e-08
4.22087e-06
5.34198e-08
4.21972e-06
5.06355e-08
4.21854e-06
4.77834e-08
4.21731e-06
4.47702e-08
4.21599e-06
4.14368e-08
4.21426e-06
3.75777e-08
3.29848e-08
4.21116e-06
4.64864e-06
5.3523e-08
4.65528e-06
6.72296e-08
4.65899e-06
6.94008e-08
4.66157e-06
7.02797e-08
4.6635e-06
6.97637e-08
4.66494e-06
6.81576e-08
4.66602e-06
6.60119e-08
4.66685e-06
6.36141e-08
4.66748e-06
6.10824e-08
4.66795e-06
5.84787e-08
4.6683e-06
5.58388e-08
4.66854e-06
5.31754e-08
4.6687e-06
5.04783e-08
4.66877e-06
4.77124e-08
4.66872e-06
4.48165e-08
4.66845e-06
4.17074e-08
4.66769e-06
3.8338e-08
3.4786e-08
4.66589e-06
5.12449e-06
4.36238e-08
5.13182e-06
5.99079e-08
5.13671e-06
6.4504e-08
5.14048e-06
6.65149e-08
5.1435e-06
6.67419e-08
5.14596e-06
6.56943e-08
5.14802e-06
6.3958e-08
5.14977e-06
6.1861e-08
5.15129e-06
5.9561e-08
5.15263e-06
5.71448e-08
5.1538e-06
5.46623e-08
5.15484e-06
5.21368e-08
5.15575e-06
4.957e-08
5.15652e-06
4.69456e-08
5.1571e-06
4.42363e-08
5.15738e-06
4.14203e-08
5.15718e-06
3.85395e-08
3.57604e-08
5.1562e-06
5.64932e-06
3.53093e-08
5.65677e-06
5.24568e-08
5.66245e-06
5.88288e-08
5.66713e-06
6.18287e-08
5.67109e-06
6.27904e-08
5.67444e-06
6.23376e-08
5.67734e-06
6.10638e-08
5.67987e-06
5.93243e-08
5.68213e-06
5.7308e-08
5.68415e-06
5.5125e-08
5.68597e-06
5.28422e-08
5.68761e-06
5.04971e-08
5.68907e-06
4.81067e-08
5.69034e-06
4.56753e-08
5.69137e-06
4.32055e-08
5.69207e-06
4.07165e-08
5.69232e-06
3.82875e-08
3.60858e-08
5.692e-06
4.41115e-06
3.0266e-08
4.41636e-06
4.72502e-08
4.42073e-06
5.44575e-08
4.42449e-06
5.80731e-08
4.42777e-06
5.95091e-08
4.43064e-06
5.94628e-08
4.43318e-06
5.85271e-08
4.43544e-06
5.70635e-08
4.43747e-06
5.52759e-08
4.43931e-06
5.32877e-08
4.44098e-06
5.11765e-08
4.44248e-06
4.89897e-08
4.44383e-06
4.67555e-08
4.44502e-06
4.44921e-08
4.446e-06
4.22189e-08
4.44674e-06
3.99736e-08
4.44719e-06
3.78422e-08
3.5965e-08
4.44731e-06
5.14454e-06
2.55811e-08
5.14991e-06
4.18812e-08
5.15474e-06
4.96257e-08
5.15908e-06
5.37325e-08
5.16298e-06
5.5607e-08
5.16648e-06
5.59647e-08
5.16963e-06
5.53817e-08
5.17247e-06
5.42195e-08
5.17505e-06
5.26917e-08
5.17741e-06
5.09324e-08
5.17956e-06
4.90287e-08
5.18151e-06
4.70375e-08
5.18327e-06
4.49977e-08
5.18482e-06
4.29398e-08
5.18614e-06
4.08971e-08
5.18719e-06
3.89181e-08
5.18795e-06
3.70841e-08
3.5504e-08
5.18841e-06
6.00004e-06
2.13313e-08
6.00544e-06
3.64828e-08
6.01062e-06
4.44417e-08
6.01549e-06
4.88708e-08
6.01999e-06
5.11062e-08
6.02411e-06
5.18361e-08
6.02789e-06
5.15994e-08
6.03136e-06
5.07487e-08
6.03455e-06
4.95013e-08
6.03749e-06
4.79979e-08
6.04018e-06
4.63329e-08
6.04265e-06
4.45715e-08
6.04489e-06
4.27612e-08
6.04688e-06
4.09425e-08
6.04862e-06
3.91575e-08
6.05008e-06
3.7458e-08
6.05125e-06
3.59138e-08
3.46036e-08
6.05215e-06
6.99804e-06
1.75531e-08
7.00335e-06
3.11814e-08
7.00877e-06
3.90162e-08
7.01406e-06
4.35772e-08
7.01911e-06
4.60611e-08
7.02384e-06
4.71009e-08
7.02826e-06
4.71808e-08
7.03237e-06
4.66337e-08
7.0362e-06
4.56734e-08
7.03976e-06
4.44422e-08
7.04305e-06
4.30387e-08
7.04609e-06
4.15335e-08
7.04887e-06
3.99804e-08
7.05139e-06
3.84257e-08
7.05363e-06
3.69146e-08
7.05559e-06
3.54962e-08
7.05728e-06
3.42253e-08
3.31542e-08
7.05872e-06
8.16234e-06
1.42313e-08
8.16744e-06
2.60776e-08
8.173e-06
3.34558e-08
8.17863e-06
3.79461e-08
8.18415e-06
4.05428e-08
8.18944e-06
4.18044e-08
8.19447e-06
4.21497e-08
8.19923e-06
4.188e-08
8.2037e-06
4.11981e-08
8.2079e-06
4.02425e-08
8.21183e-06
3.91117e-08
8.21548e-06
3.78782e-08
8.21886e-06
3.65983e-08
8.22197e-06
3.53196e-08
8.2248e-06
3.40858e-08
8.22735e-06
3.29391e-08
8.22966e-06
3.19189e-08
3.10562e-08
8.23176e-06
9.52065e-06
1.13096e-08
9.5255e-06
2.12289e-08
9.53111e-06
2.78471e-08
9.53699e-06
3.20582e-08
9.54292e-06
3.46181e-08
9.54873e-06
3.59952e-08
9.55434e-06
3.65368e-08
9.55971e-06
3.6503e-08
9.56484e-06
3.60767e-08
9.56969e-06
3.53871e-08
9.57427e-06
3.45279e-08
9.57858e-06
3.3569e-08
9.58261e-06
3.25652e-08
9.58637e-06
3.15613e-08
9.58986e-06
3.05959e-08
9.5931e-06
2.97021e-08
9.59611e-06
2.89063e-08
2.82242e-08
9.59894e-06
1.11053e-05
8.70554e-09
1.11099e-05
1.66373e-08
1.11155e-05
2.22389e-08
1.11216e-05
2.59625e-08
1.11279e-05
2.83288e-08
1.11342e-05
2.9703e-08
1.11404e-05
3.03586e-08
1.11464e-05
3.05063e-08
1.11521e-05
3.03017e-08
1.11577e-05
2.98576e-08
1.11629e-05
2.92577e-08
1.11679e-05
2.85651e-08
1.11727e-05
2.78287e-08
1.11771e-05
2.70876e-08
1.11814e-05
2.63728e-08
1.11854e-05
2.57088e-08
1.11892e-05
2.51116e-08
2.4588e-08
1.11928e-05
1.2954e-05
6.32202e-09
1.29584e-05
1.22455e-08
1.2964e-05
1.66237e-08
1.29703e-05
1.96592e-08
1.2977e-05
2.16718e-08
1.29838e-05
2.29177e-08
1.29905e-05
2.35951e-08
1.29972e-05
2.38605e-08
1.30036e-05
2.38342e-08
1.30099e-05
2.36065e-08
1.30159e-05
2.32453e-08
1.30217e-05
2.28024e-08
1.30272e-05
2.23176e-08
1.30324e-05
2.18217e-08
1.30375e-05
2.13377e-08
1.30423e-05
2.08823e-08
1.30469e-05
2.04648e-08
2.00873e-08
1.30514e-05
1.51107e-05
4.04871e-09
1.5115e-05
7.93048e-09
1.51208e-05
1.09128e-08
1.51273e-05
1.30725e-08
1.51344e-05
1.45737e-08
1.51418e-05
1.55652e-08
1.51492e-05
1.61682e-08
1.51566e-05
1.64818e-08
1.51638e-05
1.65849e-08
1.51709e-05
1.6539e-08
1.51778e-05
1.63914e-08
1.51844e-05
1.61786e-08
1.51908e-05
1.59283e-08
1.51969e-05
1.56618e-08
1.52029e-05
1.5394e-08
1.52086e-05
1.5135e-08
1.52142e-05
1.48899e-08
1.46597e-08
1.52196e-05
1.76267e-05
1.7473e-09
1.76312e-05
3.47833e-09
1.76372e-05
4.89282e-09
1.76443e-05
6.00217e-09
1.7652e-05
6.84544e-09
1.76601e-05
7.46645e-09
1.76684e-05
7.90685e-09
1.76767e-05
8.20439e-09
1.76849e-05
8.39182e-09
1.76929e-05
8.4966e-09
1.77007e-05
8.54119e-09
1.77084e-05
8.54361e-09
1.77158e-05
8.5179e-09
1.7723e-05
8.47454e-09
1.773e-05
8.42087e-09
1.77367e-05
8.36147e-09
1.77433e-05
8.29855e-09
8.23365e-09
1.77497e-05
1.78284e-05
-4.77855e-10
1.78328e-05
-8.49938e-10
1.78386e-05
-9.85805e-10
1.78456e-05
-9.29587e-10
1.78532e-05
-7.58673e-10
1.78612e-05
-5.29745e-10
1.78694e-05
-2.77406e-10
1.78776e-05
-2.27613e-11
1.78857e-05
2.22099e-10
1.78938e-05
4.51433e-10
1.79017e-05
6.63474e-10
1.79094e-05
8.58491e-10
1.79168e-05
1.03753e-09
1.79241e-05
1.2017e-09
1.79312e-05
1.35173e-09
1.79381e-05
1.48793e-09
1.79447e-05
1.61055e-09
1.72146e-09
1.79513e-05
1.58835e-05
-2.59917e-09
1.58875e-05
-4.92349e-09
1.5893e-05
-6.43721e-09
1.58993e-05
-7.28049e-09
1.59062e-05
-7.66715e-09
1.59135e-05
-7.75238e-09
1.59208e-05
-7.6401e-09
1.59282e-05
-7.40393e-09
1.59355e-05
-7.09492e-09
1.59427e-05
-6.74668e-09
1.59498e-05
-6.38077e-09
1.59566e-05
-6.01112e-09
1.59633e-05
-5.64681e-09
1.59698e-05
-5.29393e-09
1.59761e-05
-4.95668e-09
1.59823e-05
-4.63793e-09
1.59882e-05
-4.33895e-09
-4.0581e-09
1.5994e-05
1.41509e-05
-4.81575e-09
1.4155e-05
-9.05379e-09
1.41604e-05
-1.17855e-08
1.41664e-05
-1.33547e-08
1.41729e-05
-1.41586e-08
1.41796e-05
-1.44521e-08
1.41864e-05
-1.44037e-08
1.41931e-05
-1.41351e-08
1.41998e-05
-1.37311e-08
1.42063e-05
-1.32474e-08
1.42126e-05
-1.27211e-08
1.42188e-05
-1.21767e-08
1.42247e-05
-1.16307e-08
1.42305e-05
-1.10944e-08
1.42362e-05
-1.05756e-08
1.42416e-05
-1.00796e-08
1.42469e-05
-9.60901e-09
-9.16293e-09
1.4252e-05
1.26075e-05
-7.31219e-09
1.26119e-05
-1.34772e-08
1.26174e-05
-1.72297e-08
1.26234e-05
-1.93188e-08
1.26296e-05
-2.03788e-08
1.26359e-05
-2.07564e-08
1.26422e-05
-2.06795e-08
1.26483e-05
-2.03138e-08
1.26544e-05
-1.97716e-08
1.26602e-05
-1.91252e-08
1.26659e-05
-1.84222e-08
1.26715e-05
-1.76944e-08
1.26768e-05
-1.6963e-08
1.26819e-05
-1.62428e-08
1.26869e-05
-1.55438e-08
1.26917e-05
-1.4873e-08
1.26963e-05
-1.42344e-08
-1.36284e-08
1.27008e-05
1.12328e-05
-1.03031e-08
1.12377e-05
-1.83877e-08
1.12433e-05
-2.28746e-08
1.12493e-05
-2.52353e-08
1.12553e-05
-2.63705e-08
1.12612e-05
-2.66938e-08
1.1267e-05
-2.64863e-08
1.12726e-05
-2.59528e-08
1.12781e-05
-2.5225e-08
1.12833e-05
-2.43856e-08
1.12884e-05
-2.34878e-08
1.12933e-05
-2.25668e-08
1.1298e-05
-2.16461e-08
1.13025e-05
-2.07415e-08
1.13068e-05
-1.98643e-08
1.13109e-05
-1.90224e-08
1.13149e-05
-1.82209e-08
-1.74625e-08
1.13188e-05
1.00084e-05
-1.40575e-08
1.00139e-05
-2.39268e-08
1.00198e-05
-2.87232e-08
1.00256e-05
-3.10628e-08
1.00313e-05
-3.20749e-08
1.00368e-05
-3.2197e-08
1.00421e-05
-3.17566e-08
1.00471e-05
-3.09884e-08
1.00519e-05
-3.00337e-08
1.00565e-05
-2.89775e-08
1.00609e-05
-2.78735e-08
1.00651e-05
-2.67564e-08
1.00691e-05
-2.56489e-08
1.00729e-05
-2.4566e-08
1.00765e-05
-2.35181e-08
1.008e-05
-2.25133e-08
1.00834e-05
-2.15581e-08
-2.06583e-08
1.00866e-05
8.91794e-06
-1.88987e-08
8.92415e-06
-3.01387e-08
8.93008e-06
-3.46484e-08
8.93565e-06
-3.66412e-08
8.9409e-06
-3.73279e-08
8.94582e-06
-3.7111e-08
8.95041e-06
-3.63524e-08
8.95472e-06
-3.53018e-08
8.95879e-06
-3.40972e-08
8.96262e-06
-3.28174e-08
8.96626e-06
-3.15111e-08
8.96971e-06
-3.02089e-08
8.97299e-06
-2.89296e-08
8.97611e-06
-2.7685e-08
8.97908e-06
-2.64833e-08
8.98189e-06
-2.5331e-08
8.98457e-06
-2.42356e-08
-2.32078e-08
8.98712e-06
7.94694e-06
-2.51664e-08
7.9537e-06
-3.68993e-08
7.95941e-06
-4.03612e-08
7.96445e-06
-4.1686e-08
7.969e-06
-4.1875e-08
7.97311e-06
-4.122e-08
7.97685e-06
-4.00969e-08
7.9803e-06
-3.87514e-08
7.9835e-06
-3.73044e-08
7.98651e-06
-3.58196e-08
7.98933e-06
-3.43358e-08
7.992e-06
-3.2876e-08
7.99452e-06
-3.14535e-08
7.99691e-06
-3.00752e-08
7.99917e-06
-2.87449e-08
8.00131e-06
-2.74659e-08
8.00332e-06
-2.62452e-08
-2.50988e-08
8.00521e-06
7.08229e-06
-3.31292e-08
7.08922e-06
-4.38219e-08
7.09424e-06
-4.53909e-08
7.09836e-06
-4.58048e-08
7.10189e-06
-4.54059e-08
7.10496e-06
-4.4287e-08
7.10767e-06
-4.28114e-08
7.11012e-06
-4.12017e-08
7.11237e-06
-3.95494e-08
7.11445e-06
-3.78979e-08
7.11638e-06
-3.62734e-08
7.1182e-06
-3.46913e-08
7.11991e-06
-3.3159e-08
7.12151e-06
-3.16784e-08
7.12301e-06
-3.02481e-08
7.12441e-06
-2.88651e-08
7.1257e-06
-2.75313e-08
-2.62613e-08
7.12686e-06
6.31223e-06
-4.28497e-08
6.3185e-06
-5.00853e-08
6.32218e-06
-4.90739e-08
6.32491e-06
-4.85333e-08
6.32707e-06
-4.75721e-08
6.32881e-06
-4.60299e-08
6.33025e-06
-4.42488e-08
6.33147e-06
-4.242e-08
6.33252e-06
-4.06039e-08
6.33345e-06
-3.88245e-08
6.33428e-06
-3.7097e-08
6.33502e-06
-3.54297e-08
6.33568e-06
-3.38245e-08
6.33628e-06
-3.22786e-08
6.33682e-06
-3.07843e-08
6.33728e-06
-2.9329e-08
6.33765e-06
-2.78997e-08
-2.64855e-08
6.33787e-06
5.62591e-06
-5.38571e-08
5.62983e-06
-5.40128e-08
5.63114e-06
-5.03781e-08
5.63165e-06
-4.90505e-08
5.63164e-06
-4.75556e-08
5.63124e-06
-4.56268e-08
5.63058e-06
-4.35936e-08
5.62976e-06
-4.16017e-08
5.62884e-06
-3.96765e-08
5.62784e-06
-3.7823e-08
5.62678e-06
-3.60452e-08
5.6257e-06
-3.43445e-08
5.6246e-06
-3.2718e-08
5.62348e-06
-3.11592e-08
5.62235e-06
-2.96555e-08
5.6212e-06
-2.81829e-08
5.62e-06
-2.67005e-08
-2.50864e-08
5.6186e-06
5.01057e-06
-6.21233e-08
5.00709e-06
-5.05339e-08
5.00218e-06
-4.54652e-08
4.9966e-06
-4.34703e-08
4.99053e-06
-4.1482e-08
4.98422e-06
-3.9321e-08
4.97784e-06
-3.721e-08
4.97145e-06
-3.52173e-08
4.96512e-06
-3.33375e-08
4.95886e-06
-3.15604e-08
4.95269e-06
-2.98802e-08
4.94664e-06
-2.82918e-08
4.94071e-06
-2.6789e-08
4.93492e-06
-2.53641e-08
4.92927e-06
-2.40055e-08
4.92377e-06
-2.26879e-08
4.91842e-06
-2.13528e-08
-1.95575e-08
4.91289e-06
4.39443e-06
4.34389e-06
4.29843e-06
4.25496e-06
4.21347e-06
4.17415e-06
4.13694e-06
4.10173e-06
4.06839e-06
4.03683e-06
4.00695e-06
3.97866e-06
3.95187e-06
3.92651e-06
3.9025e-06
3.87982e-06
3.85846e-06
3.8389e-06
4.50277e-08
-4.50283e-08
6.94838e-08
-2.44488e-08
6.77441e-08
1.73599e-09
4.01925e-08
2.75496e-08
-1.07888e-08
5.09829e-08
-8.05517e-08
6.97588e-08
-1.62249e-07
8.16929e-08
-2.51733e-07
8.94823e-08
-3.4675e-07
9.50144e-08
-4.46033e-07
9.92813e-08
-5.48659e-07
1.02625e-07
-6.53872e-07
1.05212e-07
-7.61084e-07
1.07211e-07
-8.69814e-07
1.08729e-07
-9.79661e-07
1.09847e-07
-1.09029e-06
1.10629e-07
-1.20143e-06
1.11132e-07
-1.31283e-06
1.11403e-07
-1.42432e-06
1.11485e-07
-1.53574e-06
1.11414e-07
-1.64696e-06
1.11222e-07
-1.7579e-06
1.10934e-07
-1.86847e-06
1.10573e-07
-1.97863e-06
1.10159e-07
-2.08833e-06
1.09706e-07
-2.19755e-06
1.09226e-07
-2.30628e-06
1.0873e-07
-2.4145e-06
1.08224e-07
-2.52221e-06
1.07715e-07
-2.62942e-06
1.07205e-07
-2.73611e-06
1.06695e-07
-2.84229e-06
1.06185e-07
-2.94796e-06
1.05673e-07
-3.05311e-06
1.05156e-07
-3.15773e-06
1.04629e-07
-3.26181e-06
1.04084e-07
-3.36532e-06
1.03514e-07
-3.46823e-06
1.0291e-07
-3.57049e-06
1.02258e-07
-3.67204e-06
1.01547e-07
-3.77281e-06
1.0076e-07
-3.87269e-06
9.98792e-08
-3.97157e-06
9.88846e-08
-4.06933e-06
9.77527e-08
-4.16578e-06
9.64574e-08
-4.26075e-06
9.49695e-08
-4.35401e-06
9.32567e-08
-4.44529e-06
9.12831e-08
-4.5343e-06
8.90096e-08
-4.62069e-06
8.63931e-08
-4.70408e-06
8.33874e-08
-4.78402e-06
7.99423e-08
-4.86002e-06
7.60053e-08
-4.93154e-06
7.15209e-08
-4.99797e-06
6.64326e-08
-5.05865e-06
6.06843e-08
-5.11287e-06
5.4222e-08
-5.15987e-06
4.69966e-08
-5.19883e-06
3.89655e-08
-5.22893e-06
3.00947e-08
-5.24929e-06
2.03602e-08
-5.25905e-06
9.75558e-09
-5.25734e-06
-1.72041e-09
-5.24336e-06
-1.39854e-08
-5.21647e-06
-2.68948e-08
-5.17614e-06
-4.03305e-08
-5.122e-06
-5.41426e-08
-5.05384e-06
-6.81634e-08
-4.97163e-06
-8.22121e-08
-4.87553e-06
-9.61027e-08
-4.76588e-06
-1.09651e-07
-4.6432e-06
-1.22679e-07
-4.50817e-06
-1.35024e-07
-4.36163e-06
-1.46541e-07
-4.20451e-06
-1.57107e-07
-4.03789e-06
-1.66626e-07
-3.86286e-06
-1.75025e-07
-3.6806e-06
-1.82259e-07
-3.49228e-06
-1.8831e-07
-3.2991e-06
-1.93181e-07
-3.1022e-06
-1.96896e-07
-2.9027e-06
-1.995e-07
-2.70165e-06
-2.0105e-07
-2.50003e-06
-2.01617e-07
-2.29876e-06
-2.01278e-07
-2.09864e-06
-2.00117e-07
-1.90043e-06
-1.98217e-07
-1.70477e-06
-1.95661e-07
-1.51224e-06
-1.92529e-07
-1.32334e-06
-1.88899e-07
-1.1385e-06
-1.84839e-07
-9.58093e-07
-1.80411e-07
-7.82441e-07
-1.75652e-07
-6.11812e-07
-1.70626e-07
-4.46456e-07
-1.6535e-07
-2.86484e-07
-1.59964e-07
-1.31311e-07
-1.55168e-07
1.94105e-08
-1.50721e-07
1.65108e-07
-1.45699e-07
3.05159e-07
-1.4005e-07
4.39384e-07
-1.34216e-07
5.67849e-07
-1.28452e-07
6.9066e-07
-1.22802e-07
8.0796e-07
-1.17293e-07
9.19908e-07
-1.11943e-07
1.02667e-06
-1.06759e-07
1.12842e-06
-1.01746e-07
1.22532e-06
-9.69036e-08
1.31754e-06
-9.22311e-08
1.40526e-06
-8.77273e-08
1.48865e-06
-8.33898e-08
1.56785e-06
-7.92153e-08
1.64305e-06
-7.52007e-08
1.71438e-06
-7.13432e-08
1.78202e-06
-6.76395e-08
1.8461e-06
-6.40859e-08
1.90678e-06
-6.06787e-08
1.96419e-06
-5.74144e-08
2.01848e-06
-5.42889e-08
2.06978e-06
-5.1298e-08
2.11822e-06
-4.84372e-08
2.16393e-06
-4.57023e-08
2.20702e-06
-4.30891e-08
2.24762e-06
-4.05933e-08
2.28584e-06
-3.82106e-08
2.32178e-06
-3.59368e-08
2.35555e-06
-3.37679e-08
2.38726e-06
-3.17001e-08
2.41699e-06
-2.97296e-08
2.44485e-06
-2.78521e-08
2.47091e-06
-2.60639e-08
2.49528e-06
-2.43613e-08
2.51802e-06
-2.27406e-08
2.53922e-06
-2.11985e-08
2.55895e-06
-1.97317e-08
2.57729e-06
-1.83367e-08
2.5943e-06
-1.70108e-08
2.61005e-06
-1.5751e-08
2.6246e-06
-1.45546e-08
2.63802e-06
-1.34187e-08
2.65036e-06
-1.23407e-08
2.66168e-06
-1.13179e-08
2.67203e-06
-1.0348e-08
2.68145e-06
-9.42898e-09
2.69001e-06
-8.55875e-09
2.69774e-06
-7.73531e-09
2.7047e-06
-6.95636e-09
2.71092e-06
-6.21986e-09
2.71644e-06
-5.52418e-09
2.72131e-06
-4.86782e-09
2.72556e-06
-4.24921e-09
2.72922e-06
-3.66659e-09
2.73234e-06
-3.11822e-09
2.73495e-06
-2.60266e-09
2.73707e-06
-2.11896e-09
2.73874e-06
-1.66598e-09
2.73998e-06
-1.24249e-09
2.74083e-06
-8.47449e-10
2.74131e-06
-4.80046e-10
2.74146e-06
-1.42482e-10
2.7413e-06
1.68261e-10
2.74084e-06
4.59614e-10
2.74011e-06
7.35881e-10
2.7391e-06
1.00327e-09
2.73784e-06
1.26637e-09
2.73632e-06
1.52863e-09
2.73451e-06
1.80246e-09
2.7324e-06
2.10444e-09
2.72995e-06
2.45515e-09
2.72706e-06
2.88874e-09
2.72362e-06
3.44497e-09
2.71942e-06
4.19575e-09
2.71416e-06
5.26e-09
2.70734e-06
6.81566e-09
2.69814e-06
9.19548e-09
2.68511e-06
1.30318e-08
2.6655e-06
1.96051e-08
2.63322e-06
3.22769e-08
2.57342e-06
5.97997e-08
1.39604e-07
2.43382e-06
-1.00147e-08
-3.49807e-08
-4.58151e-08
1.1388e-08
-9.79247e-08
5.38612e-08
-1.59138e-07
8.87724e-08
-2.25791e-07
1.17643e-07
-2.96918e-07
1.40886e-07
-3.74079e-07
1.58854e-07
-4.57266e-07
1.72669e-07
-5.45645e-07
1.83393e-07
-6.38185e-07
1.91821e-07
-7.3404e-07
1.9848e-07
-8.32521e-07
2.03696e-07
-9.33031e-07
2.07723e-07
-1.03507e-06
2.10771e-07
-1.13823e-06
2.13007e-07
-1.24216e-06
2.1457e-07
-1.34661e-06
2.15579e-07
-1.45133e-06
2.16132e-07
-1.55615e-06
2.16314e-07
-1.66093e-06
2.16197e-07
-1.76554e-06
2.15841e-07
-1.8699e-06
2.15298e-07
-1.97393e-06
2.1461e-07
-2.07758e-06
2.13813e-07
-2.1808e-06
2.12934e-07
-2.28357e-06
2.11997e-07
-2.38586e-06
2.11019e-07
-2.48765e-06
2.10012e-07
-2.58892e-06
2.08985e-07
-2.68967e-06
2.07943e-07
-2.78986e-06
2.06887e-07
-2.8895e-06
2.05816e-07
-2.98855e-06
2.04723e-07
-3.08699e-06
2.03601e-07
-3.1848e-06
2.02438e-07
-3.28194e-06
2.01223e-07
-3.37837e-06
1.99937e-07
-3.47402e-06
1.98562e-07
-3.56884e-06
1.97074e-07
-3.66274e-06
1.95448e-07
-3.75563e-06
1.93652e-07
-3.8474e-06
1.91652e-07
-3.93792e-06
1.89408e-07
-4.02705e-06
1.86876e-07
-4.1146e-06
1.84008e-07
-4.20038e-06
1.80749e-07
-4.28416e-06
1.77038e-07
-4.3657e-06
1.7281e-07
-4.44468e-06
1.67992e-07
-4.5208e-06
1.62504e-07
-4.59368e-06
1.56262e-07
-4.66292e-06
1.49175e-07
-4.72806e-06
1.41144e-07
-4.78862e-06
1.32071e-07
-4.84404e-06
1.21852e-07
-4.89374e-06
1.10385e-07
-4.93709e-06
9.75732e-08
-4.97342e-06
8.33242e-08
-5.00201e-06
6.75589e-08
-5.02213e-06
5.02137e-08
-5.03301e-06
3.12436e-08
-5.03388e-06
1.06347e-08
-5.02401e-06
-1.15855e-08
-5.00271e-06
-3.52831e-08
-4.96936e-06
-6.02448e-08
-4.92344e-06
-8.6243e-08
-4.86458e-06
-1.13002e-07
-4.79254e-06
-1.40206e-07
-4.70724e-06
-1.67509e-07
-4.6088e-06
-1.9455e-07
-4.49749e-06
-2.20968e-07
-4.37376e-06
-2.46411e-07
-4.23824e-06
-2.70553e-07
-4.09169e-06
-2.931e-07
-3.935e-06
-3.13804e-07
-3.76916e-06
-3.32463e-07
-3.59526e-06
-3.48931e-07
-3.41442e-06
-3.63112e-07
-3.22776e-06
-3.74964e-07
-3.03646e-06
-3.84491e-07
-2.84161e-06
-3.91739e-07
-2.64432e-06
-3.96794e-07
-2.4456e-06
-3.99769e-07
-2.24641e-06
-4.00801e-07
-2.04765e-06
-4.00045e-07
-1.85009e-06
-3.97666e-07
-1.65448e-06
-3.93833e-07
-1.46142e-06
-3.8871e-07
-1.27148e-06
-3.82466e-07
-1.08512e-06
-3.75259e-07
-9.02716e-07
-3.67242e-07
-7.24556e-07
-3.58569e-07
-5.50846e-07
-3.49362e-07
-3.81643e-07
-3.39832e-07
-2.16889e-07
-3.30109e-07
-5.63065e-08
-3.20548e-07
9.94367e-08
-3.10911e-07
2.49327e-07
-3.00609e-07
3.93226e-07
-2.89597e-07
5.31284e-07
-2.78115e-07
6.63709e-07
-2.66653e-07
7.90581e-07
-2.55336e-07
9.12014e-07
-2.44248e-07
1.02814e-06
-2.33433e-07
1.13911e-06
-2.22917e-07
1.24506e-06
-2.12715e-07
1.34614e-06
-2.02835e-07
1.44252e-06
-1.93281e-07
1.53435e-06
-1.84054e-07
1.62179e-06
-1.75152e-07
1.70498e-06
-1.66574e-07
1.78409e-06
-1.58314e-07
1.85927e-06
-1.50369e-07
1.93068e-06
-1.42733e-07
1.99845e-06
-1.35401e-07
2.06274e-06
-1.28365e-07
2.12368e-06
-1.21619e-07
2.18143e-06
-1.15155e-07
2.2361e-06
-1.08965e-07
2.28784e-06
-1.0304e-07
2.33677e-06
-9.73727e-08
2.38302e-06
-9.19543e-08
2.4267e-06
-8.67765e-08
2.46793e-06
-8.1831e-08
2.50682e-06
-7.71098e-08
2.54348e-06
-7.26047e-08
2.57802e-06
-6.83079e-08
2.61052e-06
-6.42114e-08
2.6411e-06
-6.03074e-08
2.66983e-06
-5.6588e-08
2.69681e-06
-5.3046e-08
2.72212e-06
-4.96742e-08
2.74584e-06
-4.64655e-08
2.76806e-06
-4.34132e-08
2.78884e-06
-4.05108e-08
2.80826e-06
-3.77519e-08
2.82638e-06
-3.51305e-08
2.84328e-06
-3.26408e-08
2.859e-06
-3.02769e-08
2.87362e-06
-2.80335e-08
2.88719e-06
-2.59052e-08
2.89976e-06
-2.38871e-08
2.91139e-06
-2.19744e-08
2.92212e-06
-2.01624e-08
2.93201e-06
-1.84469e-08
2.9411e-06
-1.68237e-08
2.94944e-06
-1.52886e-08
2.95705e-06
-1.38381e-08
2.964e-06
-1.24687e-08
2.97031e-06
-1.11767e-08
2.97602e-06
-9.95884e-09
2.98117e-06
-8.81184e-09
2.98578e-06
-7.73308e-09
2.9899e-06
-6.71993e-09
2.99356e-06
-5.77007e-09
2.99678e-06
-4.88083e-09
2.99959e-06
-4.04951e-09
3.00202e-06
-3.27364e-09
3.00409e-06
-2.55066e-09
3.00583e-06
-1.8778e-09
3.00726e-06
-1.25126e-09
3.00839e-06
-6.66739e-10
3.00925e-06
-1.20346e-10
3.00985e-06
3.99519e-10
3.0102e-06
9.09178e-10
3.01031e-06
1.42167e-09
3.01016e-06
1.95716e-09
3.00972e-06
2.54619e-09
3.00894e-06
3.23025e-09
3.00775e-06
4.07327e-09
3.00603e-06
5.16625e-09
3.00358e-06
6.64332e-09
3.00011e-06
8.72438e-09
2.99516e-06
1.17666e-08
2.98797e-06
1.63838e-08
2.97728e-06
2.37202e-08
2.9609e-06
3.59837e-08
2.93501e-06
5.81634e-08
2.89322e-06
1.01577e-07
1.96425e-07
2.83641e-06
-5.68917e-08
2.19107e-08
-1.23357e-07
7.78575e-08
-1.90714e-07
1.21217e-07
-2.59571e-07
1.57629e-07
-3.30397e-07
1.8847e-07
-4.0372e-07
2.14207e-07
-4.80196e-07
2.3533e-07
-5.60026e-07
2.525e-07
-6.43019e-07
2.66385e-07
-7.2877e-07
2.77573e-07
-8.16823e-07
2.86534e-07
-9.06765e-07
2.93638e-07
-9.98228e-07
2.99187e-07
-1.09089e-06
3.03433e-07
-1.18448e-06
3.06592e-07
-1.27875e-06
3.08845e-07
-1.37352e-06
3.10346e-07
-1.46862e-06
3.1123e-07
-1.56391e-06
3.11607e-07
-1.65929e-06
3.11573e-07
-1.75466e-06
3.11209e-07
-1.84994e-06
3.10583e-07
-1.94508e-06
3.0975e-07
-2.04002e-06
3.08756e-07
-2.13472e-06
3.07639e-07
-2.22915e-06
3.06427e-07
-2.32328e-06
3.05144e-07
-2.41707e-06
3.03805e-07
-2.5105e-06
3.0242e-07
-2.60355e-06
3.00996e-07
-2.69619e-06
2.99531e-07
-2.7884e-06
2.98023e-07
-2.88014e-06
2.96463e-07
-2.97137e-06
2.94839e-07
-3.06207e-06
2.93136e-07
-3.15218e-06
2.91333e-07
-3.24165e-06
2.89405e-07
-3.33041e-06
2.87325e-07
-3.4184e-06
2.85058e-07
-3.50552e-06
2.82566e-07
-3.59167e-06
2.79805e-07
-3.67674e-06
2.76723e-07
-3.7606e-06
2.73265e-07
-3.84309e-06
2.69367e-07
-3.92404e-06
2.64959e-07
-4.00326e-06
2.59961e-07
-4.08051e-06
2.54289e-07
-4.15554e-06
2.47846e-07
-4.22808e-06
2.40529e-07
-4.29779e-06
2.32224e-07
-4.36434e-06
2.2281e-07
-4.42732e-06
2.12157e-07
-4.4863e-06
2.00129e-07
-4.54082e-06
1.86585e-07
-4.59034e-06
1.71378e-07
-4.63433e-06
1.54366e-07
-4.67216e-06
1.35408e-07
-4.70321e-06
1.14374e-07
-4.72681e-06
9.1152e-08
-4.74225e-06
6.565e-08
-4.74881e-06
3.78067e-08
-4.74578e-06
7.60043e-09
-4.73246e-06
-2.49066e-08
-4.7082e-06
-5.9536e-08
-4.67241e-06
-9.6037e-08
-4.62457e-06
-1.34087e-07
-4.56428e-06
-1.7329e-07
-4.4913e-06
-2.13189e-07
-4.40553e-06
-2.53279e-07
-4.30705e-06
-2.93029e-07
-4.19612e-06
-3.31897e-07
-4.07317e-06
-3.69359e-07
-3.9388e-06
-4.04919e-07
-3.79376e-06
-4.38135e-07
-3.63894e-06
-4.68625e-07
-3.47532e-06
-4.96084e-07
-3.30396e-06
-5.20289e-07
-3.12597e-06
-5.41097e-07
-2.94249e-06
-5.58444e-07
-2.75465e-06
-5.7234e-07
-2.56353e-06
-5.82856e-07
-2.3702e-06
-5.90122e-07
-2.17566e-06
-5.94312e-07
-1.98083e-06
-5.95634e-07
-1.78655e-06
-5.94321e-07
-1.5936e-06
-5.90622e-07
-1.40264e-06
-5.84795e-07
-1.21426e-06
-5.77088e-07
-1.02897e-06
-5.67758e-07
-8.47178e-07
-5.57046e-07
-6.69224e-07
-5.45195e-07
-4.9534e-07
-5.32451e-07
-3.25693e-07
-5.19007e-07
-1.60352e-07
-5.05171e-07
5.87006e-10
-4.91047e-07
1.56281e-07
-4.76243e-07
3.05996e-07
-4.60628e-07
4.4984e-07
-4.44454e-07
5.88055e-07
-4.2781e-07
7.20876e-07
-4.10935e-07
8.48372e-07
-3.94147e-07
9.70631e-07
-3.77592e-07
1.08775e-06
-3.61362e-07
1.19983e-06
-3.45514e-07
1.307e-06
-3.30083e-07
1.40938e-06
-3.15093e-07
1.5071e-06
-3.00558e-07
1.6003e-06
-2.86488e-07
1.68913e-06
-2.72885e-07
1.77373e-06
-2.59752e-07
1.85424e-06
-2.47088e-07
1.93081e-06
-2.34887e-07
2.00359e-06
-2.23146e-07
2.07271e-06
-2.11858e-07
2.13833e-06
-2.01015e-07
2.20057e-06
-1.90608e-07
2.25958e-06
-1.80628e-07
2.31549e-06
-1.71063e-07
2.36843e-06
-1.61902e-07
2.41852e-06
-1.53134e-07
2.4659e-06
-1.44747e-07
2.51067e-06
-1.36728e-07
2.55296e-06
-1.29066e-07
2.59288e-06
-1.21747e-07
2.63054e-06
-1.14762e-07
2.66603e-06
-1.08097e-07
2.69946e-06
-1.0174e-07
2.73094e-06
-9.5681e-08
2.76054e-06
-8.99068e-08
2.78836e-06
-8.44066e-08
2.81448e-06
-7.91695e-08
2.83899e-06
-7.41847e-08
2.86197e-06
-6.9442e-08
2.88349e-06
-6.49313e-08
2.90362e-06
-6.0643e-08
2.92243e-06
-5.65675e-08
2.94e-06
-5.26959e-08
2.95638e-06
-4.90194e-08
2.97163e-06
-4.55294e-08
2.98582e-06
-4.22181e-08
2.99899e-06
-3.90773e-08
3.0112e-06
-3.60999e-08
3.0225e-06
-3.32787e-08
3.03295e-06
-3.0607e-08
3.04258e-06
-2.80782e-08
3.05144e-06
-2.56862e-08
3.05958e-06
-2.34251e-08
3.06703e-06
-2.12892e-08
3.07383e-06
-1.92733e-08
3.08002e-06
-1.73721e-08
3.08565e-06
-1.55808e-08
3.09073e-06
-1.3895e-08
3.09531e-06
-1.23104e-08
3.09941e-06
-1.08233e-08
3.10308e-06
-9.42988e-09
3.10632e-06
-8.12633e-09
3.10918e-06
-6.90883e-09
3.11169e-06
-5.7734e-09
3.11385e-06
-4.71611e-09
3.11571e-06
-3.73235e-09
3.11728e-06
-2.81644e-09
3.11857e-06
-1.96155e-09
3.11962e-06
-1.15932e-09
3.12042e-06
-3.98721e-10
3.12099e-06
3.38841e-10
3.12133e-06
1.07822e-09
3.12143e-06
1.85096e-09
3.12128e-06
2.70112e-09
3.12082e-06
3.68923e-09
3.11999e-06
4.90542e-09
3.11867e-06
6.48113e-09
3.1167e-06
8.60953e-09
3.11383e-06
1.15959e-08
3.10967e-06
1.5931e-08
3.10361e-06
2.24327e-08
3.09478e-06
3.2554e-08
3.08183e-06
4.8929e-08
3.06314e-06
7.68575e-08
3.03795e-06
1.26761e-07
2.19862e-07
3.01451e-06
-7.64601e-08
9.83762e-08
-1.53384e-07
1.5478e-07
-2.282e-07
1.96032e-07
-3.01832e-07
2.31257e-07
-3.75136e-07
2.61775e-07
-4.48844e-07
2.87917e-07
-5.23523e-07
3.10009e-07
-5.99496e-07
3.28474e-07
-6.76878e-07
3.43769e-07
-7.55632e-07
3.5633e-07
-8.35644e-07
3.66548e-07
-9.16768e-07
3.74765e-07
-9.98856e-07
3.81277e-07
-1.08176e-06
3.86341e-07
-1.16535e-06
3.90182e-07
-1.2495e-06
3.92994e-07
-1.33409e-06
3.94945e-07
-1.41904e-06
3.9618e-07
-1.50426e-06
3.96822e-07
-1.58966e-06
3.96979e-07
-1.67519e-06
3.9674e-07
-1.76079e-06
3.9618e-07
-1.8464e-06
3.95364e-07
-1.93199e-06
3.94344e-07
-2.01752e-06
3.93161e-07
-2.10294e-06
3.91849e-07
-2.18823e-06
3.90432e-07
-2.27335e-06
3.88931e-07
-2.35829e-06
3.87355e-07
-2.443e-06
3.85711e-07
-2.52747e-06
3.83997e-07
-2.61166e-06
3.8221e-07
-2.69553e-06
3.80337e-07
-2.77906e-06
3.78364e-07
-2.86219e-06
3.7627e-07
-2.94489e-06
3.74028e-07
-3.02709e-06
3.71608e-07
-3.10873e-06
3.68971e-07
-3.18975e-06
3.66075e-07
-3.27005e-06
3.6287e-07
-3.34954e-06
3.59297e-07
-3.42812e-06
3.55293e-07
-3.50564e-06
3.50785e-07
-3.58196e-06
3.45691e-07
-3.65693e-06
3.39919e-07
-3.73033e-06
3.33369e-07
-3.80197e-06
3.25928e-07
-3.8716e-06
3.17472e-07
-3.93893e-06
3.07868e-07
-4.00368e-06
2.96969e-07
-4.06549e-06
2.84619e-07
-4.12398e-06
2.7065e-07
-4.17874e-06
2.54887e-07
-4.2293e-06
2.37146e-07
-4.27516e-06
2.17239e-07
-4.31578e-06
1.94979e-07
-4.35055e-06
1.70183e-07
-4.37885e-06
1.4268e-07
-4.40002e-06
1.12323e-07
-4.41336e-06
7.89905e-08
-4.41816e-06
4.26055e-08
-4.4137e-06
3.14084e-09
-4.39928e-06
-3.93252e-08
-4.37423e-06
-8.45839e-08
-4.33793e-06
-1.32337e-07
-4.28985e-06
-1.8217e-07
-4.22957e-06
-2.33568e-07
-4.15683e-06
-2.8593e-07
-4.07152e-06
-3.38586e-07
-3.97373e-06
-3.90824e-07
-3.86371e-06
-4.41919e-07
-3.74191e-06
-4.91159e-07
-3.60895e-06
-5.37878e-07
-3.46561e-06
-5.81474e-07
-3.3128e-06
-6.21432e-07
-3.15154e-06
-6.57344e-07
-2.98292e-06
-6.88913e-07
-2.80806e-06
-7.15958e-07
-2.6281e-06
-7.38404e-07
-2.44416e-06
-7.56275e-07
-2.25734e-06
-7.69677e-07
-2.06867e-06
-7.78796e-07
-1.8791e-06
-7.83876e-07
-1.68954e-06
-7.85204e-07
-1.50077e-06
-7.83089e-07
-1.31351e-06
-7.77877e-07
-1.12839e-06
-7.69917e-07
-9.45946e-07
-7.59534e-07
-7.66625e-07
-7.47079e-07
-5.90809e-07
-7.32863e-07
-4.18791e-07
-7.17213e-07
-2.50793e-07
-7.00449e-07
-8.70026e-08
-6.82798e-07
7.21272e-08
-6.64301e-07
2.25838e-07
-6.44759e-07
3.739e-07
-6.24306e-07
5.16418e-07
-6.03147e-07
6.53515e-07
-5.81553e-07
7.8538e-07
-5.59676e-07
9.12166e-07
-5.37721e-07
1.03393e-06
-5.15915e-07
1.15075e-06
-4.94408e-07
1.26269e-06
-4.73303e-07
1.36985e-06
-4.52671e-07
1.47233e-06
-4.3256e-07
1.57024e-06
-4.13003e-07
1.66371e-06
-3.94022e-07
1.75285e-06
-3.75633e-07
1.83781e-06
-3.57844e-07
1.91872e-06
-3.4066e-07
1.99571e-06
-3.24081e-07
2.06893e-06
-3.08104e-07
2.13851e-06
-2.92724e-07
2.20458e-06
-2.77933e-07
2.26729e-06
-2.63723e-07
2.32676e-06