/*--------------------------------*- C++ -*----------------------------------*\
| =========                 |                                                 |
| \\      /  F ield         | OpenFOAM: The Open Source CFD Toolbox           |
|  \\    /   O peration     | Version:  1.4.2                                 |
|   \\  /    A nd           | Web:      http://www.openfoam.org               |
|    \\/     M anipulation  |                                                 |
\*---------------------------------------------------------------------------*/
FoamFile
{
    version     2.0;
    format      ascii;
    class       volVectorField;
    object      U;
    location    "300";
}
// * * * * * * * * * * * * * * * * * * * * * * * * * * * * * * * * * * * * * //

dimensions      [0 1 -1 0 0 0 0];

internalField   nonuniform List<vector> 
12225
(
(9.77627 0.0380905 0)
(9.58145 0.0388251 0)
(9.36689 0.0370549 0)
(9.16082 0.0362047 0)
(8.96943 0.0352772 0)
(8.79055 0.0341272 0)
(8.62298 0.0328839 0)
(8.46641 0.0316117 0)
(8.32046 0.0303261 0)
(8.18465 0.0290341 0)
(8.05845 0.0277423 0)
(7.94139 0.0264548 0)
(7.83302 0.0251704 0)
(7.73292 0.0238793 0)
(7.64084 0.0225516 0)
(7.55669 0.0211031 0)
(7.48171 0.0193666 0)
(7.40816 0.00757618 0)
(10.004 0.0586089 0)
(10.0075 0.0556023 0)
(9.98259 0.0519804 0)
(9.95019 0.0516 0)
(9.91681 0.0513801 0)
(9.88197 0.0507899 0)
(9.84564 0.0500363 0)
(9.80838 0.0492135 0)
(9.77065 0.0483252 0)
(9.73273 0.0473689 0)
(9.6949 0.0463467 0)
(9.65738 0.0452564 0)
(9.62043 0.0440835 0)
(9.58429 0.0427898 0)
(9.54933 0.0412813 0)
(9.51605 0.0393164 0)
(9.4857 0.0362764 0)
(9.4553 0.0291139 0)
(10.0174 0.0524865 0)
(10.0368 0.0528006 0)
(10.0379 0.0514524 0)
(10.0329 0.0524867 0)
(10.0271 0.0532125 0)
(10.0202 0.0533174 0)
(10.012 0.0531374 0)
(10.003 0.0528222 0)
(9.99336 0.0523974 0)
(9.98323 0.0518711 0)
(9.97271 0.0512496 0)
(9.96189 0.0505281 0)
(9.95087 0.0496809 0)
(9.93977 0.0486456 0)
(9.92876 0.0472819 0)
(9.91796 0.0452707 0)
(9.9076 0.0418418 0)
(9.89394 0.0348147 0)
(10.0158 0.0450406 0)
(10.0374 0.0503168 0)
(10.0454 0.0509601 0)
(10.048 0.0525967 0)
(10.0496 0.053716 0)
(10.0501 0.054178 0)
(10.0497 0.0543048 0)
(10.0486 0.0542517 0)
(10.0469 0.0540591 0)
(10.0449 0.0537444 0)
(10.0427 0.0533172 0)
(10.0402 0.0527717 0)
(10.0375 0.0520781 0)
(10.0347 0.051168 0)
(10.0318 0.0499034 0)
(10.0288 0.0480185 0)
(10.0255 0.0450651 0)
(10.0194 0.0403409 0)
(10.0125 0.037204 0)
(10.0329 0.046408 0)
(10.0441 0.0489854 0)
(10.05 0.0512663 0)
(10.0546 0.0527607 0)
(10.0582 0.0535134 0)
(10.0609 0.0538609 0)
(10.0629 0.0539776 0)
(10.0645 0.0539224 0)
(10.0656 0.0537223 0)
(10.0665 0.0533914 0)
(10.0671 0.0529265 0)
(10.0675 0.0523012 0)
(10.0678 0.0514559 0)
(10.0678 0.0502828 0)
(10.0676 0.0486098 0)
(10.0666 0.0462479 0)
(10.0637 0.0431016 0)
(10.0093 0.0303941 0)
(10.027 0.0417205 0)
(10.0394 0.045962 0)
(10.0474 0.0489605 0)
(10.0538 0.0508958 0)
(10.0591 0.0519795 0)
(10.0635 0.0525676 0)
(10.0672 0.052857 0)
(10.0703 0.0529333 0)
(10.0731 0.0528405 0)
(10.0755 0.0526016 0)
(10.0777 0.0522197 0)
(10.0796 0.0516762 0)
(10.0813 0.0509283 0)
(10.0826 0.0499081 0)
(10.0835 0.0485323 0)
(10.0837 0.0467777 0)
(10.0825 0.044795 0)
(10.0067 0.024678 0)
(10.0214 0.0368049 0)
(10.0336 0.0422447 0)
(10.0425 0.0458597 0)
(10.05 0.0482403 0)
(10.0565 0.0496824 0)
(10.062 0.0505406 0)
(10.0667 0.0510294 0)
(10.071 0.0512579 0)
(10.0747 0.051287 0)
(10.0781 0.0511509 0)
(10.0812 0.0508628 0)
(10.0839 0.0504179 0)
(10.0864 0.0497956 0)
(10.0884 0.0489677 0)
(10.09 0.0479187 0)
(10.0909 0.0467133 0)
(10.0908 0.0455657 0)
(10.005 0.0205951 0)
(10.0172 0.032705 0)
(10.0286 0.0387873 0)
(10.0377 0.0428011 0)
(10.0456 0.0454923 0)
(10.0526 0.0472035 0)
(10.0587 0.0482834 0)
(10.0641 0.0489508 0)
(10.0689 0.0493246 0)
(10.0733 0.0494754 0)
(10.0773 0.0494464 0)
(10.0809 0.0492605 0)
(10.0841 0.0489257 0)
(10.087 0.0484407 0)
(10.0895 0.0478055 0)
(10.0915 0.0470428 0)
(10.0929 0.0462474 0)
(10.0935 0.0456195 0)
(10.0038 0.0174753 0)
(10.0139 0.0291913 0)
(10.0244 0.0356055 0)
(10.0334 0.0398867 0)
(10.0413 0.0428031 0)
(10.0485 0.0447214 0)
(10.055 0.0459804 0)
(10.0608 0.046797 0)
(10.066 0.047297 0)
(10.0708 0.047559 0)
(10.0752 0.0476328 0)
(10.0792 0.0475493 0)
(10.0828 0.0473268 0)
(10.086 0.0469785 0)
(10.0888 0.0465243 0)
(10.0912 0.0460086 0)
(10.093 0.0455334 0)
(10.0941 0.045267 0)
(10.0028 0.0146582 0)
(10.0111 0.0256264 0)
(10.0204 0.0321413 0)
(10.0289 0.0365733 0)
(10.0367 0.0396549 0)
(10.0439 0.0417485 0)
(10.0505 0.0431706 0)
(10.0565 0.0441319 0)
(10.062 0.0447608 0)
(10.0671 0.0451409 0)
(10.0718 0.0453283 0)
(10.0761 0.0453614 0)
(10.0801 0.0452684 0)
(10.0836 0.0450759 0)
(10.0867 0.0448188 0)
(10.0894 0.0445535 0)
(10.0916 0.0443763 0)
(10.0934 0.044419 0)
(10.0021 0.0121416 0)
(10.0086 0.0220944 0)
(10.0167 0.0284776 0)
(10.0245 0.0329182 0)
(10.0319 0.036077 0)
(10.0389 0.0382901 0)
(10.0455 0.0398402 0)
(10.0516 0.0409256 0)
(10.0573 0.0416735 0)
(10.0625 0.0421696 0)
(10.0674 0.0424743 0)
(10.072 0.0426322 0)
(10.0761 0.0426798 0)
(10.0799 0.0426529 0)
(10.0833 0.0425954 0)
(10.0863 0.0425668 0)
(10.0889 0.0426497 0)
(10.0912 0.0429409 0)
(10.0015 0.00992103 0)
(10.0066 0.0186701 0)
(10.0135 0.0246927 0)
(10.0205 0.0289924 0)
(10.0274 0.0321216 0)
(10.034 0.0343779 0)
(10.0404 0.0360031 0)
(10.0464 0.0371762 0)
(10.0521 0.038019 0)
(10.0574 0.0386162 0)
(10.0624 0.0390302 0)
(10.067 0.0393095 0)
(10.0713 0.0394956 0)
(10.0753 0.0396297 0)
(10.0789 0.0397578 0)
(10.0822 0.0399353 0)
(10.0852 0.0402269 0)
(10.088 0.0406983 0)
(10.0011 0.00797196 0)
(10.0051 0.0154056 0)
(10.0108 0.0208554 0)
(10.017 0.0248619 0)
(10.0233 0.0278448 0)
(10.0295 0.0300533 0)
(10.0355 0.0316859 0)
(10.0413 0.0328969 0)
(10.0468 0.0337977 0)
(10.0521 0.0344688 0)
(10.057 0.0349714 0)
(10.0617 0.0353551 0)
(10.0661 0.0356627 0)
(10.0702 0.0359359 0)
(10.074 0.0362176 0)
(10.0775 0.0365543 0)
(10.0808 0.0369926 0)
(10.0839 0.0375727 0)
(10.0008 0.0062486 0)
(10.004 0.0123181 0)
(10.0087 0.0170134 0)
(10.0141 0.0205756 0)
(10.0198 0.0232898 0)
(10.0255 0.0253502 0)
(10.0311 0.0269118 0)
(10.0366 0.0281003 0)
(10.0419 0.0290116 0)
(10.047 0.0297182 0)
(10.0519 0.0302771 0)
(10.0565 0.0307348 0)
(10.0609 0.031132 0)
(10.065 0.0315066 0)
(10.069 0.0318948 0)
(10.0727 0.0323321 0)
(10.0762 0.032849 0)
(10.0796 0.0334674 0)
(10.0006 0.00469284 0)
(10.0032 0.00938675 0)
(10.0071 0.0131808 0)
(10.0118 0.0161532 0)
(10.0169 0.0184737 0)
(10.0221 0.0202794 0)
(10.0274 0.0216829 0)
(10.0326 0.0227789 0)
(10.0376 0.0236439 0)
(10.0426 0.0243383 0)
(10.0473 0.0249103 0)
(10.0519 0.0254005 0)
(10.0562 0.0258434 0)
(10.0604 0.0262701 0)
(10.0643 0.0267084 0)
(10.0682 0.0271825 0)
(10.0718 0.0277109 0)
(10.0754 0.0283035 0)
(10.0005 0.00323949 0)
(10.0026 0.00655066 0)
(10.006 0.00932471 0)
(10.0101 0.0115694 0)
(10.0147 0.0133704 0)
(10.0195 0.0148104 0)
(10.0245 0.0159615 0)
(10.0294 0.0168869 0)
(10.0342 0.0176403 0)
(10.039 0.0182655 0)
(10.0436 0.0187991 0)
(10.0481 0.0192715 0)
(10.0524 0.0197087 0)
(10.0565 0.0201329 0)
(10.0605 0.0205626 0)
(10.0644 0.0210129 0)
(10.0681 0.0214934 0)
(10.0719 0.0220077 0)
(10.0005 0.00181508 0)
(10.0023 0.00370813 0)
(10.0053 0.0053532 0)
(10.0091 0.00673959 0)
(10.0133 0.00789605 0)
(10.0179 0.0088574 0)
(10.0225 0.00965724 0)
(10.0272 0.0103272 0)
(10.0319 0.0108956 0)
(10.0365 0.0113873 0)
(10.0411 0.0118234 0)
(10.0455 0.0122219 0)
(10.0497 0.0125983 0)
(10.0539 0.0129651 0)
(10.0579 0.0133322 0)
(10.0618 0.0137069 0)
(10.0656 0.0140932 0)
(10.0693 0.0144924 0)
(10.0004 0.000412913 0)
(10.0022 0.000881256 0)
(10.0051 0.00135555 0)
(10.0087 0.00182474 0)
(10.0129 0.00227406 0)
(10.0173 0.00269501 0)
(10.0218 0.00308497 0)
(10.0265 0.00344492 0)
(10.0311 0.00377802 0)
(10.0356 0.00408888 0)
(10.0401 0.0043827 0)
(10.0445 0.00466469 0)
(10.0487 0.00493956 0)
(10.0529 0.00521111 0)
(10.0569 0.00548203 0)
(10.0608 0.00575373 0)
(10.0646 0.0060266 0)
(10.0684 0.00630159 0)
(10.0005 -0.000937479 0)
(10.0023 -0.00183371 0)
(10.0054 -0.00246643 0)
(10.0092 -0.00285628 0)
(10.0134 -0.00306728 0)
(10.0179 -0.00315183 0)
(10.0225 -0.00314738 0)
(10.0271 -0.00308191 0)
(10.0318 -0.00297564 0)
(10.0364 -0.00284235 0)
(10.0409 -0.00269107 0)
(10.0452 -0.00252771 0)
(10.0495 -0.00235639 0)
(10.0537 -0.00218027 0)
(10.0577 -0.00200206 0)
(10.0616 -0.00182435 0)
(10.0654 -0.00164896 0)
(10.0692 -0.00147521 0)
(10.0005 -0.00228987 0)
(10.0027 -0.00449596 0)
(10.0061 -0.00612772 0)
(10.0102 -0.00725715 0)
(10.0147 -0.00802139 0)
(10.0194 -0.00852114 0)
(10.0242 -0.00882835 0)
(10.029 -0.00899866 0)
(10.0337 -0.00907351 0)
(10.0384 -0.00908212 0)
(10.0429 -0.0090449 0)
(10.0474 -0.00897636 0)
(10.0517 -0.0088872 0)
(10.0558 -0.0087856 0)
(10.0599 -0.00867817 0)
(10.0638 -0.00857027 0)
(10.0676 -0.00846538 0)
(10.0713 -0.00836356 0)
(10.0007 -0.00375586 0)
(10.0034 -0.00727286 0)
(10.0074 -0.00979588 0)
(10.012 -0.0115353 0)
(10.0169 -0.0127369 0)
(10.0219 -0.0135525 0)
(10.0269 -0.0140884 0)
(10.0319 -0.0144271 0)
(10.0367 -0.0146289 0)
(10.0415 -0.0147353 0)
(10.0461 -0.0147753 0)
(10.0505 -0.0147698 0)
(10.0548 -0.0147339 0)
(10.059 -0.0146795 0)
(10.063 -0.0146157 0)
(10.0669 -0.0145502 0)
(10.0706 -0.0144879 0)
(10.0743 -0.0144306 0)
(10.001 -0.00545736 0)
(10.0044 -0.0103045 0)
(10.0093 -0.0135764 0)
(10.0146 -0.0157738 0)
(10.0199 -0.0172846 0)
(10.0253 -0.0183069 0)
(10.0305 -0.0189803 0)
(10.0356 -0.0194136 0)
(10.0406 -0.0196824 0)
(10.0453 -0.0198374 0)
(10.0499 -0.0199134 0)
(10.0544 -0.0199351 0)
(10.0586 -0.0199205 0)
(10.0627 -0.0198834 0)
(10.0666 -0.0198348 0)
(10.0704 -0.0197839 0)
(10.074 -0.0197376 0)
(10.0776 -0.0196998 0)
(10.0014 -0.00754466 0)
(10.0061 -0.0137062 0)
(10.012 -0.0175133 0)
(10.018 -0.0199853 0)
(10.0238 -0.0216622 0)
(10.0294 -0.0227716 0)
(10.0348 -0.0234853 0)
(10.04 -0.023936 0)
(10.0449 -0.0242106 0)
(10.0496 -0.0243648 0)
(10.0541 -0.0244361 0)
(10.0583 -0.0244509 0)
(10.0624 -0.0244279 0)
(10.0663 -0.0243814 0)
(10.0701 -0.0243227 0)
(10.0737 -0.024262 0)
(10.0771 -0.0242084 0)
(10.0804 -0.0241697 0)
(10.0022 -0.0102041 0)
(10.0085 -0.0175511 0)
(10.0157 -0.0215757 0)
(10.0222 -0.0241033 0)
(10.0283 -0.0257877 0)
(10.034 -0.026858 0)
(10.0393 -0.0275157 0)
(10.0443 -0.0279124 0)
(10.049 -0.0281393 0)
(10.0534 -0.0282518 0)
(10.0576 -0.0282865 0)
(10.0616 -0.0282685 0)
(10.0654 -0.0282154 0)
(10.069 -0.0281396 0)
(10.0724 -0.0280519 0)
(10.0756 -0.0279621 0)
(10.0787 -0.0278813 0)
(10.0817 -0.0278231 0)
(10.0033 -0.0136567 0)
(10.0118 -0.0218291 0)
(10.0202 -0.0256342 0)
(10.027 -0.0279759 0)
(10.0329 -0.0295096 0)
(10.0383 -0.0304258 0)
(10.0433 -0.030947 0)
(10.0478 -0.0312336 0)
(10.052 -0.0313729 0)
(10.0559 -0.0314154 0)
(10.0595 -0.0313938 0)
(10.063 -0.0313295 0)
(10.0663 -0.0312366 0)
(10.0693 -0.0311242 0)
(10.0723 -0.0309998 0)
(10.075 -0.0308709 0)
(10.0777 -0.0307496 0)
(10.0802 -0.0306568 0)
(10.0051 -0.0181583 0)
(10.0161 -0.0263691 0)
(10.0251 -0.0294179 0)
(10.0314 -0.0313486 0)
(10.0366 -0.0325942 0)
(10.0412 -0.0332669 0)
(10.0453 -0.0336007 0)
(10.0489 -0.0337515 0)
(10.0522 -0.0337922 0)
(10.0553 -0.0337612 0)
(10.0581 -0.0336831 0)
(10.0608 -0.0335738 0)
(10.0632 -0.0334427 0)
(10.0656 -0.0332945 0)
(10.0678 -0.0331315 0)
(10.0698 -0.0329559 0)
(10.0717 -0.0327762 0)
(10.0735 -0.0326177 0)
(10.0075 -0.0240281 0)
(10.0208 -0.0308157 0)
(10.0291 -0.0324897 0)
(10.0338 -0.0338673 0)
(10.0374 -0.0347834 0)
(10.0405 -0.0352011 0)
(10.043 -0.035351 0)
(10.045 -0.0353762 0)
(10.0468 -0.0353298 0)
(10.0484 -0.0352356 0)
(10.0498 -0.0351096 0)
(10.051 -0.0349622 0)
(10.0521 -0.0347984 0)
(10.0531 -0.0346187 0)
(10.054 -0.0344197 0)
(10.0548 -0.0341938 0)
(10.0555 -0.0339377 0)
(10.056 -0.0336633 0)
(10.0101 -0.0306821 0)
(10.024 -0.0342677 0)
(10.029 -0.0341403 0)
(10.0299 -0.0349277 0)
(10.03 -0.0355378 0)
(10.0296 -0.0357296 0)
(10.0286 -0.035714 0)
(10.0273 -0.0356179 0)
(10.0257 -0.0354772 0)
(10.024 -0.035306 0)
(10.0222 -0.035115 0)
(10.0202 -0.0349115 0)
(10.0183 -0.0346983 0)
(10.0163 -0.0344729 0)
(10.0143 -0.0342261 0)
(10.0123 -0.033937 0)
(10.0102 -0.0335726 0)
(10.0079 -0.0330711 0)
(10.0063 -0.0363718 0)
(10.0144 -0.0378664 0)
(10.007 -0.0359844 0)
(9.99491 -0.0357982 0)
(9.98267 -0.0357694 0)
(9.97032 -0.0355084 0)
(9.95765 -0.0351556 0)
(9.94485 -0.0347973 0)
(9.9321 -0.0344462 0)
(9.91949 -0.0341 0)
(9.90706 -0.0337586 0)
(9.89485 -0.0334223 0)
(9.88287 -0.0330892 0)
(9.87114 -0.0327548 0)
(9.8597 -0.0324078 0)
(9.84855 -0.032019 0)
(9.83773 -0.0315205 0)
(9.82672 -0.0305255 0)
(9.89295 -0.024819 0)
(9.80352 -0.027051 0)
(9.69942 -0.0264501 0)
(9.59675 -0.0262869 0)
(9.50062 -0.0260792 0)
(9.41011 -0.0257173 0)
(9.32435 -0.0252935 0)
(9.24309 -0.0248618 0)
(9.16618 -0.0244347 0)
(9.09338 -0.0240138 0)
(9.02447 -0.0236 0)
(8.95922 -0.0231934 0)
(8.89743 -0.0227934 0)
(8.83893 -0.0223983 0)
(8.78355 -0.0220031 0)
(8.73115 -0.0215922 0)
(8.68181 -0.0211187 0)
(8.63406 -0.020223 0)
(0.0277405 -0.0769745 0)
(0.0527688 -0.0610147 0)
(0.065624 -0.0340493 0)
(0.0546214 0.00200578 0)
(0.0214076 0.0422426 0)
(-0.0364409 0.0767007 0)
(-0.104343 0.0945701 -7.17056e-20)
(-0.180734 0.103513 5.87349e-20)
(-0.262976 0.108498 0)
(-0.349412 0.111921 4.29175e-20)
(-0.439159 0.114162 0)
(-0.531727 0.115409 0)
(-0.62637 0.116017 0)
(-0.722648 0.11616 -2.90071e-20)
(-0.820181 0.115939 0)
(-0.918646 0.11543 0)
(-1.01778 0.114693 2.42528e-20)
(-1.11734 0.11378 0)
(-1.21717 0.112733 0)
(-1.31709 0.111589 0)
(-1.41701 0.110377 -2.09197e-20)
(-1.51681 0.109122 0)
(-1.61643 0.107844 -1.99558e-20)
(-1.71581 0.10656 0)
(-1.81492 0.105281 0)
(-1.91371 0.104017 -1.90266e-20)
(-2.01219 0.102776 0)
(-2.11032 0.101561 1.86453e-20)
(-2.20813 0.100376 0)
(-2.30559 0.0992206 -1.83976e-20)
(-2.40271 0.0980952 0)
(-2.4995 0.0969972 0)
(-2.59595 0.095923 0)
(-2.69207 0.0948679 0)
(-2.78784 0.093826 0)
(-2.88326 0.0927901 1.81594e-20)
(-2.97831 0.0917519 0)
(-3.07297 0.0907014 -3.63623e-20)
(-3.16719 0.0896278 0)
(-3.26094 0.0885183 3.64579e-20)
(-3.35415 0.0873589 0)
(-3.44675 0.0861337 0)
(-3.53864 0.0848252 -3.66457e-20)
(-3.62973 0.083414 0)
(-3.71986 0.0818784 -3.67661e-20)
(-3.80888 0.0801946 3.68155e-20)
(-3.8966 0.0783362 0)
(-3.98281 0.0762744 3.68756e-20)
(-4.06724 0.0739777 3.68787e-20)
(-4.14961 0.0714124 0)
(-4.22959 0.0685427 0)
(-4.30679 0.0653308 0)
(-4.38079 0.0617376 0)
(-4.4511 0.057723 0)
(-4.51721 0.053247 -3.62299e-20)
(-4.57852 0.0482708 0)
(-4.6344 0.0427588 3.5621e-20)
(-4.68415 0.0366801 0)
(-4.72704 0.0300103 0)
(-4.76229 0.0227334 -3.41415e-20)
(-4.78916 0.0148405 0)
(-4.80683 0.00633571 3.26806e-20)
(-4.81438 -0.0027378 0)
(-4.81096 -0.0122876 0)
(-4.79599 -0.0222312 0)
(-4.76886 -0.032493 -2.80474e-20)
(-4.72914 -0.0429609 0)
(-4.67651 -0.0535117 0)
(-4.61084 -0.0640165 -2.29349e-20)
(-4.53217 -0.0743454 0)
(-4.44069 -0.0843722 -1.8681e-20)
(-4.33679 -0.0939782 0)
(-4.221 -0.103056 0)
(-4.09399 -0.111513 0)
(-3.95659 -0.119272 8.05972e-21)
(-3.80968 -0.126273 0)
(-3.65427 -0.132476 0)
(-3.4914 -0.137856 -1.77309e-21)
(-3.32214 -0.142408 -5.40818e-21)
(-3.14758 -0.146138 0)
(-2.9688 -0.149069 -1.32236e-20)
(-2.78683 -0.151233 0)
(-2.60268 -0.152672 -4.3577e-20)
(-2.41729 -0.153434 0)
(-2.23153 -0.153572 -6.22941e-20)
(-2.04619 -0.153138 0)
(-1.86201 -0.152185 8.27282e-20)
(-1.67963 -0.150762 0)
(-1.49963 -0.148915 0)
(-1.3225 -0.146682 0)
(-1.14868 -0.144092 -1.29435e-19)
(-0.978553 -0.141158 0)
(-0.812445 -0.137869 1.56093e-19)
(-0.650645 -0.134253 0)
(-0.493351 -0.130391 -1.85369e-19)
(-0.340888 -0.126585 -2.01544e-19)
(-0.193448 -0.123698 -2.19935e-19)
(-0.0505006 -0.121082 0)
(0.0918583 -0.116817 0)
(0.225698 -0.111319 0)
(0.35525 -0.105677 0)
(0.479703 -0.100106 0)
(0.599024 -0.0946645 0)
(0.713316 -0.089399 0)
(0.82271 -0.0843383 0)
(0.927347 -0.0794983 2.19656e-19)
(1.02738 -0.0748854 2.16316e-19)
(1.12294 -0.0705002 0)
(1.2142 -0.0663396 0)
(1.3013 -0.062398 0)
(1.38438 -0.0586683 2.04519e-19)
(1.4636 -0.0551427 0)
(1.5391 -0.0518128 0)
(1.61101 -0.04867 0)
(1.67948 -0.0457058 0)
(1.74464 -0.0429115 -1.93289e-19)
(1.80663 -0.0402783 0)
(1.86558 -0.0377978 0)
(1.92161 -0.0354619 1.88204e-19)
(1.97484 -0.0332628 -1.86749e-19)
(2.0254 -0.031193 0)
(2.0734 -0.0292454 -1.84162e-19)
(2.11894 -0.0274133 0)
(2.16215 -0.0256905 1.81971e-19)
(2.20311 -0.0240707 0)
(2.24194 -0.0225481 0)
(2.27873 -0.021117 0)
(2.31357 -0.0197719 0)
(2.34656 -0.0185079 0)
(2.37778 -0.0173202 -3.54761e-19)
(2.40732 -0.0162044 -3.5372e-19)
(2.43524 -0.0151563 0)
(2.46164 -0.014172 0)
(2.48658 -0.013248 0)
(2.51014 -0.0123807 3.50683e-19)
(2.53238 -0.0115668 0)
(2.55337 -0.0108031 0)
(2.57316 -0.0100867 0)
(2.59183 -0.00941488 3.49161e-19)
(2.60943 -0.00878494 -3.48977e-19)
(2.626 -0.00819437 0)
(2.64162 -0.00764075 0)
(2.65631 -0.00712189 -3.48822e-19)
(2.67015 -0.00663591 -3.48888e-19)
(2.68316 -0.00618104 0)
(2.6954 -0.00575544 0)
(2.7069 -0.00535726 3.49388e-19)
(2.71771 -0.00498498 -3.49644e-19)
(2.72787 -0.00463729 0)
(2.73741 -0.00431286 0)
(2.74638 -0.00401037 -3.50627e-19)
(2.7548 -0.00372853 0)
(2.76272 -0.00346597 0)
(2.77015 -0.00322153 -3.51872e-19)
(2.77714 -0.00299428 0)
(2.78372 -0.00278334 -3.52809e-19)
(2.78991 -0.00258783 0)
(2.79573 -0.00240692 0)
(2.80123 -0.00224029 0)
(2.80642 -0.00208825 3.54846e-19)
(2.81134 -0.00194929 0)
(2.81601 -0.00182035 0)
(2.82044 -0.0016992 0)
(2.82465 -0.0015844 0)
(2.82865 -0.0014742 0)
(2.83243 -0.00136589 0)
(2.83598 -0.00125596 3.58456e-19)
(2.8393 -0.00114004 3.58996e-19)
(2.84233 -0.00101192 0)
(2.84502 -0.000862554 0)
(2.84725 -0.000677958 0)
(2.84887 -0.000437448 -3.61494e-19)
(2.84962 -0.000108747 0)
(2.84909 0.000361546 7.26683e-19)
(2.84661 0.00106836 -7.29305e-19)
(2.84105 0.002198 -7.32892e-19)
(2.8304 0.00413132 7.38135e-19)
(2.81001 0.00789961 -7.46477e-19)
(2.77394 0.0162238 7.6102e-19)
(2.66015 0.041616 0)
(-0.00535867 -0.097523 0)
(-0.0206089 -0.0314381 0)
(-0.0615748 0.043327 1.22097e-19)
(-0.111723 0.104562 0)
(-0.1683 0.152742 -7.62863e-20)
(-0.22928 0.188839 -6.43618e-20)
(-0.295026 0.214478 -2.77671e-20)
(-0.366335 0.232714 -2.47015e-20)
(-0.442706 0.245892 0)
(-0.523255 0.255586 -2.00775e-20)
(-0.607177 0.262772 0)
(-0.693796 0.267958 0)
(-0.782543 0.271509 3.1682e-20)
(-0.872941 0.273726 1.50058e-20)
(-0.964592 0.274849 -2.82454e-20)
(-1.05717 0.275076 -2.69287e-20)
(-1.1504 0.274571 -1.30194e-20)
(-1.24407 0.273476 0)
(-1.33801 0.271907 0)
(-1.43206 0.269965 0)
(-1.52611 0.267735 -1.1298e-20)
(-1.62008 0.265287 0)
(-1.71389 0.26268 3.30722e-20)
(-1.80749 0.259961 0)
(-1.90084 0.25717 0)
(-1.99389 0.254337 1.06943e-20)
(-2.08664 0.251486 0)
(-2.17906 0.248634 -1.05297e-20)
(-2.27113 0.245792 -2.06596e-20)
(-2.36284 0.242968 1.04304e-20)
(-2.45419 0.240165 0)
(-2.54515 0.237381 0)
(-2.63572 0.234613 0)
(-2.72587 0.231852 -2.04414e-20)
(-2.81558 0.22909 -2.04498e-20)
(-2.90483 0.226312 -1.03822e-20)
(-2.99358 0.223501 0)
(-3.08178 0.220639 2.08283e-20)
(-3.16938 0.217704 0)
(-3.25631 0.214668 -2.0911e-20)
(-3.34251 0.211504 0)
(-3.42788 0.208178 0)
(-3.5123 0.204655 2.10352e-20)
(-3.59567 0.200894 0)
(-3.67782 0.196851 6.27637e-20)
(-3.7586 0.192477 -2.11089e-20)
(-3.8378 0.187719 0)
(-3.91522 0.182516 -2.10989e-20)
(-3.9906 0.176806 -2.10685e-20)
(-4.06366 0.170518 0)
(-4.13408 0.163581 0)
(-4.20151 0.155918 0)
(-4.26555 0.147448 0)
(-4.32578 0.13809 0)
(-4.3817 0.127763 2.03418e-20)
(-4.4328 0.116387 4.00872e-20)
(-4.47851 0.103888 -1.98148e-20)
(-4.51823 0.090202 0)
(-4.55129 0.0752775 3.83112e-20)
(-4.57702 0.0590787 -1.8863e-20)
(-4.59476 0.0415827 0)
(-4.60379 0.0227855 -1.76301e-20)
(-4.60325 0.00273561 0)
(-4.59257 -0.0183901 0)
(-4.5711 -0.0403522 -3.16816e-20)
(-4.53829 -0.062925 1.46206e-20)
(-4.4937 -0.0858481 -2.83186e-20)
(-4.43701 -0.108834 2.64228e-20)
(-4.36806 -0.131582 1.16039e-20)
(-4.28682 -0.153788 0)
(-4.19346 -0.175155 9.24452e-21)
(-4.08827 -0.19541 0)
(-3.97175 -0.214306 0)
(-3.84449 -0.231632 0)
(-3.70726 -0.247221 5.57917e-21)
(-3.5609 -0.260948 0)
(-3.40637 -0.272733 3.47959e-21)
(-3.24465 -0.282543 3.83698e-22)
(-3.07678 -0.290384 2.39171e-21)
(-2.90382 -0.296298 0)
(-2.72681 -0.30036 5.64615e-21)
(-2.54675 -0.302673 0)
(-2.36464 -0.303357 1.79124e-20)
(-2.18137 -0.30255 0)
(-1.9978 -0.300396 2.45844e-20)
(-1.81471 -0.297044 -5.1367e-20)
(-1.63281 -0.292643 -3.12718e-20)
(-1.45272 -0.287334 0)
(-1.27499 -0.281255 0)
(-1.1001 -0.27453 0)
(-0.928449 -0.267278 4.46771e-20)
(-0.760342 -0.259606 0)
(-0.596028 -0.251601 -5.14614e-20)
(-0.435651 -0.243435 0)
(-0.279248 -0.235302 1.71063e-19)
(-0.126753 -0.227422 6.19024e-20)
(0.0226745 -0.219773 6.44774e-20)
(0.166535 -0.211863 0)
(0.305393 -0.202952 0)
(0.438659 -0.19337 0)
(0.56689 -0.183945 0)
(0.690091 -0.174763 0)
(0.808347 -0.165885 1.35729e-19)
(0.921762 -0.157339 1.3708e-19)
(1.03045 -0.149136 0)
(1.13455 -0.141276 -7.09965e-20)
(1.23418 -0.133757 -7.15397e-20)
(1.32948 -0.126572 0)
(1.42059 -0.119714 -1.43218e-19)
(1.50765 -0.113173 0)
(1.59078 -0.10694 7.18849e-20)
(1.67014 -0.101006 0)
(1.74586 -0.0953588 0)
(1.81807 -0.08999 -1.48938e-19)
(1.8869 -0.0848889 0)
(1.9525 -0.0800453 7.62567e-20)
(2.01499 -0.075449 0)
(2.07449 -0.0710899 0)
(2.13114 -0.0669581 7.68389e-20)
(2.18504 -0.0630437 7.84602e-20)
(2.23632 -0.0593371 0)
(2.28508 -0.055829 -7.87389e-20)
(2.33145 -0.0525104 0)
(2.37552 -0.0493726 8.00303e-20)
(2.4174 -0.046407 1.62085e-19)
(2.4572 -0.0436054 0)
(2.49499 -0.0409598 0)
(2.53088 -0.0384625 0)
(2.56496 -0.0361061 0)
(2.59732 -0.0338836 1.69081e-19)
(2.62802 -0.0317882 5.10163e-19)
(2.65717 -0.0298134 0)
(2.68482 -0.0279531 0)
(2.71105 -0.0262013 0)
(2.73594 -0.0245525 -1.75656e-19)
(2.75954 -0.0230013 0)
(2.78194 -0.0215425 0)
(2.80318 -0.0201714 3.5876e-19)
(2.82332 -0.0188832 1.80463e-19)
(2.84243 -0.0176735 1.82383e-19)
(2.86055 -0.0165381 0)
(2.87775 -0.0154729 0)
(2.89406 -0.0144741 1.86425e-19)
(2.90954 -0.0135384 -1.87352e-19)
(2.92423 -0.0126625 0)
(2.93818 -0.011843 0)
(2.95143 -0.011077 -1.91746e-19)
(2.96402 -0.0103616 5.78848e-19)
(2.97598 -0.00969424 0)
(2.98736 -0.00907239 0)
(2.99819 -0.00849357 1.96917e-19)
(3.00851 -0.00795545 0)
(3.01835 -0.0074557 3.98607e-19)
(3.02773 -0.00699222 -2.00427e-19)
(3.0367 -0.00656326 0)
(3.04528 -0.00616707 2.03053e-19)
(3.0535 -0.00580194 4.08261e-19)
(3.06138 -0.00546611 0)
(3.06896 -0.00515807 0)
(3.07625 -0.00487736 -2.07615e-19)
(3.08328 -0.00462152 0)
(3.09006 -0.00438632 4.19367e-19)
(3.09662 -0.00416831 0)
(3.10297 -0.00396364 0)
(3.10914 -0.00376684 0)
(3.11512 -0.00357144 0)
(3.1209 -0.00336911 -2.14664e-19)
(3.12647 -0.00314843 -2.15584e-19)
(3.13179 -0.00289307 0)
(3.13679 -0.00257956 0)
(3.14138 -0.00217323 0)
(3.1454 -0.00162235 2.1925e-19)
(3.14859 -0.000845297 0)
(3.15057 0.000292244 -4.42668e-19)
(3.15074 0.00202323 4.45199e-19)
(3.14806 0.00478934 4.48353e-19)
(3.14089 0.00946058 4.52419e-19)
(3.12571 0.0181168 4.59189e-19)
(3.10047 0.0358368 4.68888e-19)
(3.03731 0.0786112 0)
(-0.039875 -0.0207417 0)
(-0.0810043 0.0806293 0)
(-0.137245 0.160954 -7.21617e-20)
(-0.197839 0.226649 -5.64009e-20)
(-0.259928 0.280682 4.76889e-20)
(-0.323703 0.324119 4.14801e-20)
(-0.390038 0.358067 -1.18464e-23)
(-0.459426 0.384164 0)
(-0.531829 0.404021 0)
(-0.606943 0.418972 0)
(-0.684371 0.430013 0)
(-0.763726 0.437874 0)
(-0.844662 0.443135 -6.92089e-20)
(-0.926879 0.446267 0)
(-1.01011 0.447656 2.08444e-20)
(-1.09414 0.447627 2.00106e-20)
(-1.17878 0.446448 0)
(-1.26387 0.444346 0)
(-1.34928 0.44151 0)
(-1.4349 0.438101 0)
(-1.52064 0.434249 1.74067e-20)
(-1.60644 0.430066 0)
(-1.69222 0.425641 -1.68547e-20)
(-1.77795 0.421045 0)
(-1.86358 0.416338 0)
(-1.94908 0.411564 0)
(-2.03443 0.406756 -3.2452e-20)
(-2.11959 0.401939 0)
(-2.20454 0.397128 1.61173e-20)
(-2.28926 0.39233 -3.20854e-20)
(-2.37374 0.387548 0)
(-2.45794 0.382777 0)
(-2.54184 0.378009 0)
(-2.62542 0.37323 1.61021e-20)
(-2.70865 0.36842 1.61342e-20)
(-2.79148 0.363557 0)
(-2.87386 0.358613 0)
(-2.95576 0.353555 -3.24011e-20)
(-3.03711 0.348347 -3.25026e-20)
(-3.11783 0.342946 3.26067e-20)
(-3.19785 0.337305 0)
(-3.27706 0.331373 0)
(-3.35536 0.325091 0)
(-3.43261 0.318395 0)
(-3.50867 0.311216 -3.31537e-20)
(-3.58338 0.303477 -3.30949e-20)
(-3.65653 0.295093 3.31196e-20)
(-3.72792 0.285974 0)
(-3.79729 0.276022 0)
(-3.86438 0.265133 0)
(-3.92887 0.253198 0)
(-3.99043 0.240101 -3.27523e-20)
(-4.04867 0.225724 0)
(-4.10317 0.209947 0)
(-4.15349 0.19265 -3.19731e-20)
(-4.19911 0.173719 -3.14425e-20)
(-4.23951 0.153047 0)
(-4.2741 0.130543 6.12514e-20)
(-4.30227 0.106134 -2.97499e-20)
(-4.32338 0.0797761 2.90291e-20)
(-4.33681 0.0514506 0)
(-4.34187 0.0211797 0)
(-4.33771 -0.0109239 0)
(-4.32389 -0.0446259 0)
(-4.29976 -0.079631 2.38905e-20)
(-4.26475 -0.115589 4.64191e-20)
(-4.21843 -0.152093 2.11224e-20)
(-4.16047 -0.188688 -1.96035e-20)
(-4.09068 -0.224895 0)
(-4.00903 -0.260221 3.43175e-20)
(-3.91564 -0.294188 3.08534e-20)
(-3.81082 -0.326344 2.72266e-20)
(-3.695 -0.356283 -2.34474e-20)
(-3.5688 -0.383657 0)
(-3.43296 -0.408185 -2.21932e-20)
(-3.2883 -0.429662 0)
(-3.13578 -0.447958 4.64141e-21)
(-2.97638 -0.463019 2.90968e-22)
(-2.81112 -0.474859 0)
(-2.64105 -0.483554 0)
(-2.46718 -0.489234 -1.03022e-20)
(-2.29051 -0.49207 0)
(-2.11199 -0.492269 -1.90237e-20)
(-1.93249 -0.490061 0)
(-1.75285 -0.485688 2.75954e-20)
(-1.5738 -0.479403 6.59777e-20)
(-1.39602 -0.471453 0)
(-1.22009 -0.462076 0)
(-1.04652 -0.451506 0)
(-0.875742 -0.439959 4.79708e-20)
(-0.708113 -0.427648 0)
(-0.543894 -0.41479 5.56793e-20)
(-0.383306 -0.401575 0)
(-0.226455 -0.388325 0)
(-0.0735046 -0.375103 -1.35771e-19)
(0.0759669 -0.361707 0)
(0.219659 -0.34799 -7.11709e-20)
(0.358093 -0.333793 0)
(0.491469 -0.31924 -7.42575e-20)
(0.619883 -0.304604 0)
(0.743511 -0.290208 0)
(0.862402 -0.276182 0)
(0.976628 -0.262593 -2.40036e-19)
(1.08627 -0.249478 -8.21072e-20)
(1.19144 -0.236851 0)
(1.29222 -0.224719 0)
(1.38874 -0.21308 0)
(1.48111 -0.201929 0)
(1.56945 -0.191259 8.70383e-20)
(1.6539 -0.181058 -1.73873e-19)
(1.73457 -0.171318 -8.88863e-20)
(1.8116 -0.162025 1.77764e-19)
(1.88512 -0.153166 1.79692e-19)
(1.95525 -0.144729 9.1624e-20)
(2.02212 -0.1367 0)
(2.08586 -0.129065 1.85463e-19)
(2.1466 -0.121809 0)
(2.20445 -0.11492 -1.89344e-19)
(2.25953 -0.108382 -9.62578e-20)
(2.31196 -0.102181 0)
(2.36185 -0.096303 1.95268e-19)
(2.40931 -0.0907345 9.91438e-20)
(2.45445 -0.0854618 0)
(2.49736 -0.0804717 1.00228e-19)
(2.53816 -0.0757515 -3.05545e-19)
(2.57694 -0.0712886 0)
(2.61379 -0.0670711 0)
(2.6488 -0.0630871 0)
(2.68206 -0.0593255 0)
(2.71364 -0.0557752 -2.14011e-19)
(2.74364 -0.0524258 -2.16757e-19)
(2.77213 -0.0492672 0)
(2.79918 -0.0462898 0)
(2.82486 -0.0434844 0)
(2.84924 -0.0408424 0)
(2.87239 -0.0383552 0)
(2.89437 -0.0360149 0)
(2.91524 -0.0338139 -2.31961e-19)
(2.93506 -0.0317449 -3.52336e-22)
(2.95388 -0.0298008 0)
(2.97175 -0.0279751 0)
(2.98874 -0.0262614 -2.40419e-19)
(3.00487 -0.024654 0)
(3.02021 -0.0231471 2.45049e-19)
(3.0348 -0.0217355 2.46956e-19)
(3.04868 -0.0204142 0)
(3.06188 -0.0191784 0)
(3.07446 -0.0180237 -2.5356e-19)
(3.08644 -0.0169457 -5.10898e-19)
(3.09787 -0.0159405 0)
(3.10878 -0.0150041 0)
(3.11919 -0.0141329 0)
(3.12916 -0.0133234 -2.63725e-19)
(3.1387 -0.0125723 2.65676e-19)
(3.14785 -0.0118769 0)
(3.15663 -0.0112342 5.38703e-19)
(3.16508 -0.0106414 2.71085e-19)
(3.17322 -0.0100957 -5.46064e-19)
(3.18108 -0.00959409 0)
(3.18867 -0.00913363 0)
(3.19603 -0.00871131 -5.56555e-19)
(3.20317 -0.00832345 -2.80056e-19)
(3.21011 -0.00796547 0)
(3.21687 -0.0076309 0)
(3.22345 -0.00731089 0)
(3.22988 -0.00699438 0)
(3.23613 -0.0066674 -5.75392e-19)
(3.2422 -0.00631112 0)
(3.24805 -0.00589912 0)
(3.25363 -0.00539394 0)
(3.25884 -0.00474083 0)
(3.26354 -0.00385783 0)
(3.26752 -0.00261787 0)
(3.27044 -0.000814726 -5.96286e-19)
(3.27182 0.00189922 0)
(3.27086 0.00615292 0)
(3.26649 0.0131178 -1.22597e-18)
(3.2566 0.025267 6.24076e-19)
(3.24194 0.0477635 -6.42602e-19)
(3.21028 0.0926811 6.71479e-19)
(-0.055486 0.116054 0)
(-0.104375 0.217583 1.58482e-19)
(-0.167452 0.294732 0)
(-0.233617 0.359429 4.24919e-20)
(-0.298942 0.413894 0)
(-0.364006 0.458944 0)
(-0.429723 0.495461 -2.86753e-20)
(-0.496565 0.524543 0)
(-0.564711 0.547313 0)
(-0.634179 0.5648 0)
(-0.704889 0.577878 0)
(-0.776724 0.58728 0)
(-0.849552 0.59362 7.46575e-20)
(-0.923244 0.597419 3.58276e-20)
(-0.997676 0.599118 -3.44017e-20)
(-1.07274 0.599091 0)
(-1.14832 0.597657 0)
(-1.22434 0.595084 0)
(-1.30071 0.591598 0)
(-1.37737 0.587391 0)
(-1.45425 0.582621 2.93909e-20)
(-1.53131 0.57742 2.89563e-20)
(-1.60848 0.571895 -2.85996e-20)
(-1.68574 0.566135 2.83116e-20)
(-1.76305 0.560208 0)
(-1.84037 0.554168 0)
(-1.91767 0.548057 2.76512e-20)
(-1.99494 0.541902 0)
(-2.07214 0.535724 0)
(-2.14926 0.52953 2.75398e-20)
(-2.22626 0.523322 2.7648e-20)
(-2.30312 0.517095 2.76862e-20)
(-2.37981 0.510836 0)
(-2.45631 0.504527 0)
(-2.53257 0.498142 -2.79191e-20)
(-2.60857 0.49165 0)
(-2.68425 0.485013 0)
(-2.75956 0.47819 2.8223e-20)
(-2.83444 0.471129 -2.84441e-20)
(-2.90883 0.463775 2.85769e-20)
(-2.98264 0.456066 0)
(-3.05578 0.44793 0)
(-3.12815 0.43929 5.78218e-20)
(-3.19961 0.430059 0)
(-3.27002 0.420142 5.82419e-20)
(-3.33924 0.409437 8.75238e-20)
(-3.40706 0.397829 -8.76966e-20)
(-3.47329 0.385197 5.86056e-20)
(-3.53769 0.371409 0)
(-3.59999 0.356327 0)
(-3.65989 0.339801 5.84607e-20)
(-3.71707 0.321678 2.89348e-20)
(-3.77116 0.301798 0)
(-3.82175 0.279999 0)
(-3.86839 0.256121 2.82529e-20)
(-3.91061 0.230008 5.64398e-20)
(-3.94787 0.201517 0)
(-3.9796 0.170524 -5.40417e-20)
(-4.0052 0.136933 5.37783e-20)
(-4.02403 0.100682 -5.2609e-20)
(-4.03547 0.0617529 0)
(-4.03883 0.0201826 0)
(-4.03331 -0.0238811 0)
(-4.0184 -0.0701443 0)
(-3.99344 -0.118233 0)
(-3.95787 -0.167679 -4.02575e-20)
(-3.91122 -0.217927 0)
(-3.85315 -0.268357 0)
(-3.78345 -0.318303 0)
(-3.7021 -0.36708 -6.02291e-20)
(-3.60921 -0.414012 -2.63601e-20)
(-3.5051 -0.458462 -2.31935e-20)
(-3.39023 -0.499849 4.12695e-20)
(-3.26522 -0.537675 -1.79737e-20)
(-3.13085 -0.571535 1.30762e-20)
(-2.98798 -0.601134 0)
(-2.83757 -0.626288 -5.96085e-21)
(-2.68064 -0.64692 0)
(-2.51823 -0.663054 0)
(-2.35137 -0.6748 0)
(-2.18108 -0.682344 1.568e-20)
(-2.00833 -0.685934 -1.07381e-20)