/*--------------------------------*- C++ -*----------------------------------*\
| =========                 |                                                 |
| \\      /  F ield         | OpenFOAM: The Open Source CFD Toolbox           |
|  \\    /   O peration     | Version:  1.4.2                                 |
|   \\  /    A nd           | Web:      http://www.openfoam.org               |
|    \\/     M anipulation  |                                                 |
\*---------------------------------------------------------------------------*/
FoamFile
{
    version     2.0;
    format      ascii;
    class       volScalarField;
    object      epsilon;
    location    "200";
}
// * * * * * * * * * * * * * * * * * * * * * * * * * * * * * * * * * * * * * //

dimensions      [0 2 -3 0 0 0 0];

internalField   nonuniform List<scalar> 
12225
(
443.025
353.448
290.576
245.326
212.158
187.55
169.186
155.497
145.395
138.103
133.06
129.847
128.149
127.717
128.356
129.903
132.225
135.499
60.1692
73.6198
79.5817
83.7221
87.7573
92.4165
98.0554
104.858
112.923
122.306
133.03
145.087
158.445
173.039
188.769
205.488
222.924
241.017
26.299
33.7107
37.8436
40.6869
42.9409
44.9751
47.0025
49.1525
51.5063
54.1169
57.0185
60.2315
63.7639
67.6106
71.7488
76.1271
80.6362
85.073
18.7378
22.7294
25.4846
27.3727
28.8128
30.0108
31.0758
32.0827
33.0814
34.1051
35.1762
36.3093
37.5124
38.7878
40.1316
41.5321
42.9667
44.3869
16.17
18.1699
19.9415
21.2995
22.3482
23.1821
23.8787
24.4962
25.0668
25.6104
26.1426
26.6746
27.2136
27.7641
28.3287
28.9085
29.504
30.103
15.236
16.0905
17.0564
17.9489
18.702
19.3221
19.8377
20.2741
20.6536
20.9942
21.3113
21.6147
21.9099
22.2017
22.4949
22.7942
23.1069
23.4418
14.8944
15.172
15.5911
16.0606
16.5184
16.9376
17.3081
17.6275
17.9034
18.1448
18.3586
18.5515
18.73
18.9023
19.0739
19.2496
19.4422
19.696
14.7877
14.8387
14.9938
15.214
15.4616
15.7124
15.9521
16.1725
16.3717
16.55
16.7079
16.8477
16.9738
17.0906
17.2034
17.3207
17.4673
17.7437
14.7442
14.6885
14.7009
14.7681
14.8715
14.9948
15.126
15.2569
15.3824
15.5
15.6082
15.7067
15.7959
15.8762
15.9518
16.0342
16.1631
16.5015
14.724
14.6131
14.542
14.5088
14.5067
14.5279
14.565
14.6118
14.6635
14.7171
14.77
14.8208
14.8684
14.9128
14.9569
15.0149
15.1452
15.5921
14.7151
14.5787
14.4647
14.3742
14.3057
14.2565
14.2232
14.2025
14.1913
14.187
14.1874
14.191
14.1966
14.2039
14.2174
14.2561
14.4041
15.0137
14.7112
14.564
14.4308
14.3121
14.2079
14.1175
14.0398
13.9733
13.9164
13.8678
13.826
13.7899
13.7586
13.7326
13.7182
13.7428
13.925
14.7582
14.7093
14.5578
14.4169
14.2863
14.1658
14.0553
13.9541
13.8617
13.7775
13.7007
13.6307
13.5668
13.5087
13.4579
13.4228
13.4407
13.6749
14.7945
14.7081
14.5548
14.411
14.276
14.1493
14.0305
13.9192
13.815
13.7176
13.6264
13.5412
13.4617
13.3882
13.3226
13.2757
13.2962
13.5994
15.0572
14.7073
14.5529
14.4079
14.2714
14.1426
14.0211
13.9064
13.7981
13.6957
13.599
13.5077
13.4218
13.3415
13.2695
13.2186
13.2491
13.6315
15.4482
14.7066
14.5515
14.406
14.2689
14.1395
14.0174
13.9019
13.7926
13.6891
13.5912
13.4985
13.411
13.329
13.2555
13.205
13.2478
13.7035
15.8375
14.7059
14.5505
14.4046
14.2674
14.138
14.0159
13.9005
13.7914
13.6881
13.5905
13.4981
13.4109
13.3292
13.2559
13.2064
13.256
13.7503
16.0498
14.7056
14.55
14.4041
14.267
14.1378
14.016
13.9011
13.7925
13.6899
13.5929
13.5013
13.4148
13.3339
13.261
13.2104
13.253
13.7152
15.889
14.7056
14.5502
14.4046
14.2679
14.1393
14.0182
13.904
13.7963
13.6947
13.5988
13.5084
13.4232
13.3433
13.2709
13.2173
13.2393
13.5986
15.348
14.7059
14.5511
14.4063
14.2706
14.1433
14.0237
13.9115
13.8062
13.7072
13.6144
13.5272
13.4453
13.3689
13.2992
13.2441
13.2433
13.4784
14.6938
14.7067
14.5532
14.4106
14.278
14.1549
14.0408
13.9351
13.8373
13.7469
13.6631
13.5855
13.5135
13.4469
13.3862
13.3364
13.322
13.4554
14.2029
14.7085
14.5593
14.4241
14.3025
14.194
14.0976
14.0123
13.9366
13.8692
13.809
13.7549
13.706
13.6616
13.6216
13.5886
13.5765
13.6484
14.0688
14.7142
14.5807
14.4719
14.3867
14.3224
14.2752
14.2412
14.2171
14.1999
14.1874
14.178
14.1703
14.1637
14.1578
14.154
14.1594
14.2068
14.4325
14.7358
14.6589
14.6347
14.6522
14.6977
14.7593
14.828
14.8975
14.9638
15.0248
15.0792
15.1269
15.1681
15.2032
15.2338
15.2637
15.3088
15.4324
14.8204
14.9288
15.1351
15.389
15.6515
15.9006
16.1256
16.3224
16.4912
16.634
16.7541
16.8547
16.9387
17.0088
17.0678
17.1187
17.1691
17.2449
15.1408
15.7822
16.5102
17.1962
17.7842
18.2698
18.6641
18.9821
19.238
19.4446
19.6121
19.7489
19.8615
19.955
20.0335
20.1006
20.1602
20.2214
16.3177
18.2933
19.9539
21.2263
22.1751
22.8801
23.4067
23.805
24.1112
24.3513
24.5437
24.7019
24.8357
24.9522
25.0566
25.1526
25.2428
25.3294
20.7521
25.6302
28.6883
30.599
31.8394
32.66
33.2151
33.607
33.9008
34.1385
34.3474
34.5452
34.7433
34.9487
35.1653
35.3947
35.6364
35.8876
43.9579
54.4835
58.7032
60.4093
60.957
60.9639
60.8115
60.7128
60.7346
60.9062
61.2364
61.7233
62.3593
63.1337
64.0343
65.0475
66.1571
67.3524
332.627
280.254
240.735
210.2
186.168
166.964
151.419
138.695
128.183
119.427
112.083
105.889
100.639
96.1707
92.3565
89.0927
86.2962
83.8983
4.77034
7.21551
13.2354
21.5852
32.3199
43.7823
56.2553
69.739
84.1944
99.5881
115.896
133.099
151.186
170.149
189.984
210.691
232.273
254.737
278.094
302.357
327.541
353.665
380.75
408.82
437.901
468.021
499.209
531.499
564.922
599.512
635.306
672.339
710.647
750.265
791.231
833.576
877.335
922.536
969.205
1017.37
1067.03
1118.22
1170.92
1225.14
1280.86
1338.05
1396.69
1456.73
1518.12
1580.84
1644.85
1710.17
1776.87
1845.13
1913.72
1981.43
2047.7
2111.93
2173.48
2231.66
2285.78
2335.15
2379.1
2416.97
2448.2
2472.26
2488.74
2497.33
2497.82
2490.15
2474.34
2450.57
2419.11
2380.34
2334.72
2282.8
2225.18
2162.51
2095.45
2024.71
1950.96
1874.88
1797.13
1718.34
1639.12
1560.05
1481.67
1404.6
1330.07
1258.85
1192.89
1135.63
1082.06
1030.76
981.367
933.803
888.08
844.221
802.244
762.158
723.955
687.617
653.115
620.408
589.449
560.185
532.555
506.497
481.946
458.834
437.093
416.655
397.452
379.419
362.49
346.603
331.697
317.715
304.599
292.298
280.761
269.94
259.79
250.267
241.333
232.948
225.077
217.686
210.744
204.222
198.09
192.324
186.898
181.79
176.978
172.442
168.163
164.122
160.303
156.691
153.269
150.025
146.945
144.017
141.229
138.571
136.032
133.603
131.275
129.04
126.89
124.819
122.819
120.886
119.013
117.197
115.432
113.715
112.043
110.412
108.821
107.266
105.747
104.262
102.809
101.387
99.9945
98.6304
97.2927
95.9791
94.6864
93.4102
92.1452
90.8965
89.6555
88.3771
85.7211
63.7144
50.8442
42.5619
23.4425
22.27
28.3512
36.9595
47.0793
57.9687
69.294
80.8833
92.6541
104.569
116.614
128.787
141.092
153.541
166.148
178.927
191.897
205.076
218.48
232.13
246.041
260.231
274.718
289.515
304.639
320.104
335.921
352.102
368.659
385.601
402.935
420.669
438.806
457.352
476.308
495.674
515.449
535.63
556.212
577.19
598.556
620.304
642.426
664.915
687.768
710.983
734.562
758.515
782.857
807.613
832.816
858.508
884.746
911.6
938.843
965.83
992.261
1017.87
1042.38
1065.52
1087
1106.54
1123.87
1138.76
1150.99
1160.36
1166.72
1169.96
1170
1166.81
1160.39
1150.8
1138.13
1122.49
1104.05
1083
1059.54
1033.92
1006.38
977.169
946.557
914.796
882.137
848.819
815.064
781.073
747.005
712.932
678.99
645.512
613.778
584.045
555.806
528.803
502.912
478.083
454.295
431.535
409.794
389.06
369.318
350.551
332.736
315.848
299.86
284.741
270.459
256.982
244.274
232.302
221.03
210.424
200.449
191.073
182.263
173.986
166.213
158.914
152.061
145.627
139.587
133.917
128.592
123.593
118.898
114.489
110.346
106.453
102.794
99.3532
96.1168
93.0715
90.2045
87.5041
84.9593
82.5595
80.2949
78.1563
76.1351
74.223
72.4123
70.6959
69.0668
67.5188
66.0457
64.6419
63.3021
62.0213
60.7949
59.6184
58.488
57.3997
56.3502
55.3363
54.355
53.4036
52.4798
51.5814
50.7063
49.8531
49.0201
48.206
47.4098
46.6306
45.8675
45.1199
44.3875
43.6697
42.9664
42.2773
41.6023
40.9413
40.2952
39.6748
39.0785
38.4945
37.7037
35.3057
32.805
30.9963
43.261
34.2564
39.8827
48.4965
58.4069
68.9595
79.8036
90.7534
101.723
112.682
123.623
134.556
145.498
156.466
167.48
178.561
189.726
200.994
212.379
223.895
235.555
247.369
259.346
271.495
283.821
296.329
309.023
321.907
334.982
348.25
361.711
375.365
389.211
403.247
417.473
431.886
446.485
461.27
476.238
491.392
506.734
522.267
537.999
553.939
570.102
586.505
603.168
620.115
637.375
654.974
672.936
691.279
710.004
729.104
748.381
767.592
786.544
805.039
822.868
839.808
855.633
870.118
883.047
894.221
903.455
910.593
915.5
918.074
918.241
915.961
911.225
904.06
894.523
882.695
868.691
852.651
834.739
815.135
794.03
771.623
748.114
723.701
698.563
672.872
646.781
620.43
593.906
567.272
541.088
515.697
491.34
468.049
445.737
424.323
403.757
384.015
365.085
346.959
329.632
313.094
297.335
282.341
268.096
254.58
241.772
229.649
218.186
207.358
197.138
187.5
178.417
169.861
161.806
154.226
147.097
140.392
134.088
128.163
122.593
117.359
112.44
107.817
103.472
99.3875
95.5477
91.9371
88.5413
85.3467
82.3405
79.5107
76.8459
74.3354
71.9692
69.7378
67.6323
65.6444
63.7663
61.9904
60.3098
58.718
57.2087
55.7761
54.4148
53.1195
51.8855
50.7081
49.583
48.5063
47.4742
46.4831
45.5298
44.6112
43.7246
42.8672
42.0368
41.2311
40.4482
39.6863
38.9437
38.219
37.5109
36.8185
36.1406
35.4765
34.8256
34.1874
33.5613
32.9473
32.345
31.7544
31.1757
30.6091
30.0553
29.5169
28.9986
28.4927
27.9378
27.1265
26.2341
25.5377
60.6862
43.8953
48.5777
56.9186
66.5326
76.704
87.1058
97.574
108.035
118.463
128.858
139.231
149.599
159.979
170.39
180.846
191.363
201.951
212.62
223.378
234.229
245.177
256.223
267.369
278.614
289.957
301.394
312.925
324.546
336.254
348.046
359.919
371.871
383.899
396.004
408.184
420.443
432.783
445.21
457.732
470.361
483.111
496
509.05
522.287
535.741
549.445
563.435
577.748
592.419
607.48
622.952
638.841
655.152
671.734
688.45
705.149
721.66
737.786
753.315
768.022
781.683
794.075
804.989
814.231
821.628
827.031
830.318
831.396
830.2
826.7
820.91
812.875
802.646
790.322
776.038
759.953
742.246
723.107
702.734
681.328
659.09
636.177
612.749
588.929
564.893
540.684
516.869
493.564
470.902
448.991
427.873
407.548
388.001
369.217
351.188
333.908
317.371
301.569
286.494
272.133
258.473
245.497
233.186
221.52
210.476
200.032
190.164
180.848
172.059
163.772
155.963
148.607
141.682
135.164
129.03
123.26
117.832
112.727
107.926
103.41
99.1627
95.1674
91.4088
87.8722
84.5439
81.4107
78.4605
75.6815
73.0631
70.5948
68.267
66.0706
63.9971
62.0385
60.187
58.4357
56.7777
55.2068
53.717
52.3027
50.9585
49.6795
48.4611
47.2988
46.1885
45.1262
44.1085
43.1317
42.1928
41.2889
40.417
39.5748
38.7597
37.9698
37.2029
36.4573
35.7313
35.0235
34.3325
33.6573
32.9967
32.35
31.7163
31.0951
30.4858
29.8881
29.3018
28.7266
28.1626
27.6099
27.0688
26.5399
26.0246
25.5249
25.0401
24.5515
24.021
23.489
23.0486
75.6724
51.527
54.9248
62.7394
71.9485
81.7053
91.6746
101.706
111.739
121.754
131.756
141.756
151.769
161.811
171.894
182.031
192.229
202.496
212.833
223.243
233.725
244.276
254.892
265.57
276.302
287.083
297.907
308.767
319.657
330.57
341.502
352.449
363.406
374.374
385.35
396.338
407.343
418.371
429.433
440.543
451.72
462.985
474.366
485.894
497.606
509.544
521.752
534.281
547.18
560.5
574.285
588.574
603.391
618.741
634.535
650.674
667.025
683.422
699.668
715.537
730.791
745.181
758.46
770.39
780.749
789.337
795.978
800.523
802.854
802.861
800.482
795.726
788.675
779.302
767.701
754.016
738.423
721.119
702.315
682.228
661.084
639.152
616.539
593.445
569.93
546.464
523.207
500.325
477.932
456.125
434.979
414.539
394.828
375.856
357.625
340.134
323.381
307.36
292.064
277.482
263.601
250.404
237.874
225.992
214.735
204.082
194.009
184.492
175.508
167.031
159.037
151.504
144.406
137.721
131.427
125.503
119.927
114.679
109.741
105.094
100.721
96.6058
92.7319
89.085
85.6511
82.4169
79.37
76.4986
73.7917
71.2387
68.83
66.5562
64.4087
62.3792
60.4601
58.6441
56.9243
55.2944
53.7483
52.2802
50.8848
49.5571
48.2922
47.0858
45.9335
44.8315
43.7761
42.7637
41.7911
40.8554
39.9536
39.0831
38.2416
37.4267
36.6365
35.869
35.1225
34.3955
33.6866
32.9945
32.3181
31.6564
31.0087
30.3741
29.7521
29.1422
28.5441
27.9574
27.3821
26.8181
26.2655
25.7248
25.1965
24.6816
24.1815
23.6978
23.2264
22.7626
22.3239
21.9449
87.6871
57.3135
59.269
66.3401
75.0062
84.2775
93.7847
103.376
112.993
122.623
132.27
141.946
151.664
161.437
171.275
181.184
191.17
201.233
211.373
221.586
231.867
242.208
252.602
263.041
273.513
284.011
294.524
305.043
315.558
326.061
336.546
347.006
357.437
367.837
378.206
388.547
398.864
409.169
419.473
429.795
440.157
450.587
461.121
471.796
482.661
493.767
505.174
516.945
529.148
541.851
555.119
569.01
583.569
598.815
614.707
631.167
648.071
665.249
682.49
699.547
716.149
732.015
746.862
760.414
772.416
782.635
790.874
796.945
800.756
802.093
800.809
796.885
790.365
781.33
769.911
756.274
740.609
723.126
704.06
683.635
662.06
639.626
616.405
592.84
569.164
545.619
522.374
499.521
477.168
455.398
434.273
413.838
394.122
375.144
356.912
339.431
322.699
306.71
291.456
276.924
263.1
249.965
237.5
225.685
214.496
203.91
193.903
184.45
175.525
167.106
159.166
151.682
144.629
137.986
131.73
125.838
120.292
115.07
110.153
105.524
101.166
97.062
93.1966
89.5554
86.1244
82.8907
79.8419
76.9665
74.2536
71.6928
69.2744
66.9895
64.8293
62.7858
60.8515
59.0191
57.282
55.6338
54.0685
52.5806
51.1647
49.8159
48.5295
47.301
46.1265
45.0019
43.9237
42.8884
41.8929
40.9343
40.0096
39.1165
38.2525
37.4155
36.6033
35.8143
35.0467
34.299
33.5699
32.8581
32.1625
31.4822
30.8164
30.1643
29.5253
28.8991
28.2851
27.6832
27.0932
26.5151
25.9491
25.3954
24.8548
24.3283
23.8171
23.3233
22.8484
22.3948
21.9725
21.596
96.4187
61.3739
61.8927
68.0669
76.0531
84.7461
93.7352
102.854
112.039
121.275
130.563
139.915
149.341
158.85
168.451
178.147
187.939
197.826
207.803
217.864
227.999
238.2
248.455
258.753
269.081
279.428
289.78
300.127
310.456
320.759
331.024
341.246
351.418
361.535
371.598
381.607
391.568
401.489
411.385
421.274
431.181
441.136
451.179
461.356
471.722
482.34
493.284
504.635
516.48
528.91
542.015
555.879
570.57
586.136
602.577
619.832
637.779
656.236
674.966
693.686
712.084
729.831
746.599
762.074
775.963
788.004
798.011
805.641
810.626
812.82
812.155
808.639
802.338
793.363
781.874
768.061
752.122
734.258
714.758
693.851
671.635
648.698
625.176
601.32
577.349
553.464
529.829
506.581
483.871
461.769
440.325
419.587
399.583
380.334
361.851
344.138
327.194
311.013
295.584
280.893
266.925
253.659
241.075
229.15
217.86
207.179
197.084
187.548
178.546
170.052
162.041
154.488
147.37
140.662
134.343
128.391
122.784
117.504
112.529
107.844
103.429
99.2701
95.3502
91.655
88.1708
84.8844
81.7836
78.8567
76.0929
73.4817
71.0136
68.6793
66.4704
64.3787
62.3967
60.5172
58.7334
57.0391
55.4283
53.8953
52.4348
51.042
49.7122
48.4409
47.224
46.0578
44.9385
43.8628
42.8275
41.8297
40.8667
39.9359
39.0349
38.1617
37.3142
36.4906
35.6893
34.9087
34.1475
33.4044
32.6785
31.9687
31.2743
30.5944
29.9286
29.2763
28.6371
28.0109
27.3974
26.7966
26.2088
25.6342
25.0736
24.5279
23.9987
23.4879
22.9984
22.534
22.1009
21.7056
101.857
63.8295
63.0349
68.2298
75.4243
83.4473
91.8528
100.454
109.175
117.991
126.898
135.903
145.013
154.235
163.575
173.033
182.61
192.301
202.099
211.997
221.983
232.045
242.172
252.35
262.564
272.801
283.047
293.288
303.512
313.706
323.86
333.963
344.009
353.989
363.902
373.747
383.526
393.245
402.917
412.559
422.193
431.852
441.574
451.411
461.423
471.685
482.282
493.317
504.902
517.157
530.209
544.175
559.16
575.251
592.495
610.845
630.172
650.265
670.844
691.572
712.074
731.962
750.853
768.399
784.265
798.102
809.455
818.042
823.688
826.309
825.886
822.467
816.149
807.06
795.368
781.313
765.099
746.825
726.97
705.807
683.53
660.45
636.791
612.78
588.617
564.49
540.559
516.969
493.848
471.3
449.423
428.286
407.907
388.305
369.493
351.474
334.244
317.796
302.118
287.195
273.009
259.539
246.762
234.656
223.194
212.351
202.1
192.417
183.273
174.643
166.502
158.824
151.584
144.76
138.328
132.266
126.554
121.17
116.096
111.313
106.804
102.553
98.5437
94.7613
91.1921
87.8227
84.641
81.635
78.794
76.1074
73.5655
71.1591
68.8797
66.719
64.6694
62.7236
60.875
59.1172
57.4441
55.8501
54.3298
52.8784
51.4911
50.1634
48.8914
47.671
46.4988
45.3712
44.2851
43.2376
42.226
41.2477
40.3004
39.3819
38.4902
37.6236
36.7803
35.9588
35.1579
34.3762
33.6128
32.8666
32.1368
31.4227
30.7237
30.0392
29.369
28.7126
28.0701
27.4413
26.8265
26.226
25.6405
25.0711
24.5192
23.9869
23.4765
22.9919
22.5366
22.1143
104.214
64.8268
62.9147
67.1128
73.4425
80.7219
88.484
96.5211
104.74
113.102
121.595
130.218
138.975
147.871
156.907
166.084
175.398
184.846
194.418
204.106
213.897
223.779
233.739
243.761
253.831
263.934
274.055
284.18
294.294
304.383
314.436
324.44
334.385
344.263
354.067
363.794
373.441
383.012
392.515
401.962
411.373
420.776
430.209
439.721
449.376
459.255
469.461
480.115
491.363
503.369
516.312
530.368
545.698
562.454
580.73
600.483
621.555
643.68
666.503
689.6
712.506
734.755
755.883
775.56
793.099
808.049
820.101
829.073
834.875
837.484
836.915
833.282
826.731
817.388
805.388
791.119
774.797
756.619
736.883
715.842
693.731
670.795
647.255
623.323
599.193
575.044
551.037
527.316
504.006
481.218
459.047
437.569
416.859
396.952
377.854
359.566
342.084
325.397
309.493
294.355
279.964
266.297
253.332
241.044
229.407
218.395
207.981
198.138
188.841
180.062
171.775
163.956
156.58
149.622
143.061
136.873
131.037
125.533
120.343
115.446
110.827
106.467
102.352
98.4674
94.7979
91.331
88.0539
84.955
82.0232
79.2481
76.6197
74.1288
71.7668
69.5255
67.3971
65.3743
63.4503
61.6188
59.8736
58.2091
56.6199
55.1011
53.6477
52.2556
50.9204
49.6383
48.4057
47.2192
46.0755
44.9718
43.9053
42.8735
41.8739
40.9045
39.9632
39.0483
38.1581
37.291
36.4457
35.621
34.8157
34.029
33.2599
32.5077
31.7718
31.0516
30.3468
29.6571
28.9823
28.3225
27.6777
27.0484
26.4353
25.8393
25.262
24.7051
24.1704
23.6611
23.179
22.7266
103.814
64.5438
61.7517
64.9944
70.4331
76.927
84.0039
91.4383
99.118
106.989
115.029
123.229
131.588
140.106
148.784
157.62
166.611
175.749
185.026
194.432
203.955
213.583
223.299
233.091
242.943
252.839
262.765
272.704
282.642
292.564
302.455
312.303
322.095
331.819
341.467
351.029
360.502
369.884
379.176
388.387
397.53
406.628
415.713
424.833
434.048
443.443
453.129
463.253
474.001
485.602
498.316
512.424
528.178
545.847
565.548
587.204
610.582
635.31
660.906
686.812
712.435
737.253
760.559
781.736
800.204
815.555
827.619
836.333
841.709
843.778
842.6
838.393
831.374
821.732
809.667
795.433
779.254
761.349
741.95
721.284
699.575
677.038
653.882
630.305
606.49
582.611
558.822
535.264
512.062
489.325
467.148
445.609
424.778
404.709
385.458
367.025
349.403
332.581
316.545
301.276
286.755
272.959
259.865
247.448
235.682
224.541
213.998
204.027
194.601
185.695
177.282
169.337
161.837
154.756
148.073
141.765
135.812
130.192
124.886
119.878
115.147
110.68
106.458
102.469
98.6971
95.1297
91.7543
88.5591
85.5329
82.6653
79.9463
77.3669
74.9181
72.5917
70.3801
68.2759
66.2722
64.3626
62.541
60.8017
59.1394
57.5489
56.0256
54.5649
53.1628
51.8153
50.5188
49.2698
48.0652
46.902
45.7774
44.689
43.6344
42.6113
41.6179
40.6522
39.7127
38.7977
37.9059
37.036
36.187
35.3579
34.5477
33.7557
32.9813
32.2239
31.4831
30.7586
30.0503
29.3581
28.6821
28.0228
27.3808
26.7571
26.153
25.5701
25.0096
24.4737
23.963
23.4802
100.935
63.1831
59.7861
62.1758
66.7543
72.4631
78.8391
85.6446
92.7522
100.094
107.637
115.364
123.271
131.352
139.607
148.032
156.622
165.369
174.267
183.302
192.465
201.742
211.118
220.58
230.112
239.699
249.325
258.974
268.632
278.282
287.909
297.498
307.035
316.507
325.9
335.206
344.413
353.517
362.516
371.412
380.214
388.94
397.62
406.298
415.033
423.906
433.033
442.567
452.752
463.907
476.418
490.74
507.263
526.432
548.329
572.741
599.27
627.356
656.323
685.448
713.905
740.822
765.488
787.4
805.983
820.869
832.105
839.773
844.004
844.95
842.808
837.795
830.141
820.068
807.787
793.514
777.46
759.83
740.826
720.648
699.493
677.553
655.015
632.055
608.844
585.539
562.286
539.216
516.449
494.09
472.23
450.949
430.312
410.375
391.189
372.792
355.201
338.402
322.379
307.113
292.584
278.77
265.648
253.193
241.38
230.184
219.58
209.541
200.041
191.056
182.561
174.53
166.94
159.768
152.991
146.588
140.539
134.822
129.42
124.314
119.487
114.923
110.606
106.521
102.655
98.9941
95.5264
92.24
89.1238
86.1675
83.3612
80.6957
78.1623
75.7527
73.4592
71.2746
69.1919
67.2048
65.3072
63.4933
61.7578
60.0957
58.5022
56.9728
55.5034
54.0901
52.7293
51.4175
50.1516
48.9285
47.7457
46.6004
45.4904
44.4136
43.3677
42.3512
41.3622
40.3992
39.4609
38.546
37.6533
36.7819
35.9307
35.0991
34.2864
33.492
32.7155
31.9564
31.2148
30.4904
29.7835
29.0944
28.4237
27.7722
27.1413
26.5321
25.946
25.3831
24.8441
24.3317
95.5876
60.971
57.3068
59.0167
62.8337
67.805
73.4904
79.6522
86.1556
92.9248
99.9183
107.114
114.502
122.075
129.829
137.76
145.862
154.128
162.548
171.113
179.812
188.631
197.557
206.576
215.673
224.834
234.044
243.285
252.544
261.804
271.05
280.266
289.436
298.547
307.585
316.538
325.394
334.146
342.791
351.328
359.767
368.127
376.439
384.761
393.18
401.745
410.562
419.813
429.786
440.894
453.726
468.987
487.31
509.156
534.609
563.019
593.698
625.81
658.454
690.535
721.02
749.032
773.91
795.204
812.651
826.147
835.753
841.64
844.046
843.24
839.492
833.072
824.242
813.252
800.326
785.672
769.484
751.947
733.234
713.515
692.954
671.712
649.945
627.804
605.433
582.968
560.537
538.258
516.239
494.575
473.352
452.643
432.513
413.016
394.197
376.095
358.743
342.16
326.329
311.231
296.847
283.155
270.132
257.757
246.005
234.853
224.277
214.252
204.753
195.758
187.242
179.181
171.554
164.337
157.51
151.051
144.941
139.16
133.69
128.513
123.614
118.975
114.582
110.42
106.476
102.736
99.1899
95.8246
92.6296
89.5947
86.7103
83.9671
81.3566
78.8707
76.5017
74.2424
72.086
70.0262
68.057
66.1726
64.3677
62.6374
60.9769
59.3818
57.8481
56.3717
54.9492
53.577
52.2521
50.9715
49.7325
48.5326
47.3693
46.2406
45.1444
44.079
43.0425
42.0335
41.0506
40.0924
39.1579
38.246
37.3557
36.4863
35.637
34.8073
33.9967
33.2047
32.4313
31.6764
30.9399
30.2224
29.5242
28.8461
28.1893
27.5548
26.9436
26.3551
25.7894
25.2495
89.0419
58.4953
54.7653
55.9752
59.1638
63.4681
68.4861
73.9951
79.8639
86.0148
92.4027
99.0023
105.799
112.786
119.955
127.303
134.823
142.508
150.35
158.339
166.464
174.714
183.076
191.537
200.084
208.702
217.378
226.096
234.843
243.603
252.362
261.106
269.82
278.49
287.106
295.655
304.13
312.526
320.842
329.083
337.266
345.416
353.58
361.829
370.275
379.01
388.179
398.027
408.931
421.45
436.406
454.666
476.972
503.405
533.649
566.952
602.251
638.317
673.941
707.881
739.1
766.801
790.46
809.812
824.798
835.503
842.138
845.006
844.459
840.86
834.559
825.882
815.128
802.565
788.425
772.908
756.194
738.439
719.789
700.377
680.33
659.772
638.822
617.596
596.207
574.763
553.366
532.114
511.096
490.394
470.083
450.228
430.887
412.108
393.935
376.403
359.544
343.384
327.939
313.189
299.116
285.7
272.92
260.756
249.187
238.191
227.746
217.83
208.42
199.495
191.033
183.011
175.409
168.206
161.381
154.915
148.789
142.985
137.485
132.273
127.333
122.649
118.207
113.993
109.994
106.198
102.592
99.1658
95.9087
92.8106
89.8622
87.0545
84.3791
81.8282
79.3942
77.07
74.8491
72.7252
70.6923
68.7449
66.8777
65.0859
63.3647
61.71
60.1175
58.5835
57.1044
55.6769
54.2979
52.9643
51.6737
50.4233
49.211
48.0346
46.892
45.7815
44.7013
43.6499
42.626
41.6281
40.6552
39.7062
38.78
37.876
36.9932
36.1312
35.2894
34.4674
33.665
32.882
32.1186
31.3749
30.6515
29.949
29.2683
28.6102
27.9756
27.3637
26.7737
26.2091
81.0351
55.7582
52.292
53.192
55.8874
59.6096
64.0058
68.8784
74.1074
79.6189
85.3677
91.3272
97.4815
103.821
110.34
117.032
123.891
130.913
138.088
145.409
152.866
160.45
168.149
175.953
183.849
191.826
199.873
207.978
216.129
224.315
232.524
240.747
248.974
257.198
265.412
273.614
281.804
289.987
298.175
306.39
314.665
323.051
331.619
340.477
349.768
359.692
370.506
382.569
396.42
412.862
432.932
457.481
486.615
519.963
556.707
595.658
635.373
674.351
711.214
744.828
774.379
799.294
819.307
834.422
844.823
850.809
852.763
851.124
846.341
838.848
829.047
817.298
803.917
789.172
773.287
756.45
738.813
720.506
701.64
682.314
662.617
642.631
622.439
602.118
581.746
561.397
541.144
521.058
501.207
481.654
462.456
443.668
425.337
407.505
390.208
373.478
357.343
341.827
326.956
312.731
299.134
286.147
273.753
261.934
250.672
239.948
229.742
220.035
210.808
202.04
193.712
185.803
178.295
171.169
164.406
157.989
151.898
146.119
140.633
135.427
130.484
125.79
121.331
117.096
113.07
109.242
105.602
102.137
98.8391
95.6975
92.7035
89.8485
87.1244
84.5235
82.0386
79.6629
77.3899
75.2136
73.1282
71.1283
69.2089
67.365
65.5923
63.8865
62.2436
60.6598
59.1318
57.6562
56.23
54.8502
53.5144
52.22
50.9647
49.7464
48.5632
47.4132
46.2947
45.2063
44.1464
43.1139
42.1074
41.1259
40.1685
39.2342
38.3223
37.4321
36.5631
35.7149
34.8872
34.0798
33.2928
32.5263
31.7808
31.0567
30.3548
29.6759
29.0204
28.3882
27.7766
27.1904
72.0974
52.7602
49.8919
50.654
52.9691
56.1904
60.0208
64.2924
68.9006
73.7782
78.8826
84.1868
89.6746
95.3357
101.164
107.153
113.3
119.6
126.046
132.633
139.354
146.202
153.17
160.251
167.438
174.723
182.101
189.565
197.112
204.738
212.44
220.218
228.075
236.015
244.048
252.186
260.451
268.869
277.479
286.334
295.504
305.085
315.206
326.043
337.832
350.897
365.676
382.775
403.027
427.557
457.401
492.047
530.84
572.638
616.009
659.404
701.214
740.002
774.619
804.262
828.476
847.111
860.285
868.364
871.797
871.053
866.655
859.155
849.054
836.806
822.818
807.446
790.985
773.679
755.723
737.27
718.443
699.338
680.031
660.588
641.061
621.498
601.943
582.44
563.03
543.754
524.656
505.777
487.16
468.846
450.874
433.282
416.105
399.374
383.118
367.362
352.129
337.439
323.313
309.769
296.796
284.378
272.501
261.151
250.313
239.971
230.108
220.709
211.755
203.23
195.116
187.397
180.054
173.072
166.433
160.121
154.12
148.416
142.992
137.835
132.93
128.265
123.827
119.604
115.583
111.754
108.106
104.63
101.315
98.1532
95.1353
92.2534
89.4998
86.8672
84.3487
81.9377
79.6281
77.414
75.2901
73.2509
71.2918
69.408
67.5952
65.8493
64.1665
62.5431
60.9758
59.4615
57.9971
56.5799
55.2073
53.8769
52.5865
51.334
50.1175
48.9351
47.7853
46.6664
45.5771
44.5161
43.4821
42.4741
41.491
40.532
39.5963
38.6831
37.792
36.9223
36.0739
35.2465
34.44
33.6547
32.8908
32.1487
31.4291
30.7325
30.0594
29.4096
28.7805
28.1763
62.9375
49.5201
47.5299
48.3183
50.3596
53.1587
56.4837
60.1998
64.2202
68.487
72.9613
77.6176
82.4392
87.4159
92.5412
97.8112
103.223
108.775
114.464
120.29
126.25
132.345
138.573
144.935
151.433
158.072
164.856
171.793
178.892
186.166
193.632
201.309
209.222
217.4
225.882
234.712
243.946
253.651
263.915
274.844
286.574
299.28
313.19
328.61
345.94
365.746
388.734
415.929
448.559
487.551
531.147
578.01
626.435
674.576
720.729
763.559
801.855
834.691
861.52
882.138
896.634
905.318
908.663
907.249
901.699
892.638
880.683
866.485
850.493
833.107
814.696
795.563
775.951
756.043
735.982
715.875
695.802
675.823
655.982
636.311
616.834
597.57
578.532
559.734
541.186
522.902
504.896
487.184
469.782
452.71
435.988
419.636
403.674
388.121
372.997
358.318
344.1
330.358
317.107
304.366
292.132
280.395
269.144
258.368
248.054
238.191
228.763
219.759
211.163
202.961
195.138
187.679
180.57
173.796
167.342
161.194
155.337
149.759
144.446
139.384
134.561
129.966
125.586
121.411
117.429
113.631
110.007
106.547
103.244
100.087
97.0698
94.1842
91.4231
88.7797
86.2473
83.8199
81.4916
79.257
77.1108
75.0481
73.0642
71.1548
69.3156
67.5428
65.8328
64.182
62.5872
61.0454
59.5537
58.1095
56.7103
55.3537
54.0376
52.7599
51.5189
50.3127
49.1397
47.9984
46.8874
45.8054
44.7511
43.7235
42.7215
41.7443
40.791
39.8608
38.9532
38.0676
37.2038
36.3614
35.5404
34.7408
33.9629
33.2071
32.4737
31.7633
31.0761
30.4121
29.7696
29.1512
54.087
46.0666
45.158
46.134
48.0187
50.4876
53.3812
56.6018
60.083
63.778
67.6534
71.6865
75.8618
80.1702
84.607
89.1708
93.8629
98.6868
103.648
108.753
114.012
119.438
125.043
130.848
136.872
143.141
149.684
156.536
163.736
171.328
179.364
187.903
197.01
206.762
217.247
228.565
240.835
254.193
268.804
284.871
302.643
322.423
344.617
369.79
398.576
431.86
470.677
516.669
568.868
623.899
679.58
733.743
784.421
830.055
869.631
902.792
929.122
948.534
961.229
967.629
968.311
963.942
955.23
942.876
927.552
909.868
890.374
869.558
847.825
825.522
802.982
780.426
757.998
735.799
713.904
692.362
671.21
650.471
630.159
610.28
590.835
571.818
553.223
535.039
517.256
499.863
482.853
466.219
449.958
434.067
418.55
403.409
388.651
374.282
360.309
346.742
333.587
320.853
308.549
296.686
285.269
274.292
263.745
253.621
243.91
234.602
225.685
217.15
208.983
201.173
193.708
186.576
179.762
173.256
167.045
161.115
155.456
150.054
144.898
139.977
135.28
130.796
126.514
122.424
118.518
114.784
111.216
107.804
104.541
101.417
98.4274
95.5636
92.8193
90.1881
87.6641
85.2415
82.9148
80.6791
78.5292
76.4608
74.4693
72.5506
70.7009
68.9164
67.1937
65.5296
63.9208
62.3646
60.8583
59.3992
57.985
56.6136
55.2827
53.9905
52.7351
51.5149
50.3283
49.1737
48.0498
46.9552
45.8889
44.8496
43.8363
42.8481
41.8842
40.9438
40.0261
39.1309
38.2575
37.4058
36.5756
35.7669
34.9798
34.2148
33.472
32.752
32.0549
31.3806
30.7279
30.0999
45.8097
42.3131
42.6089
43.9453
45.8286
48.1013
50.6791
53.5038
56.5315
59.729
63.0711
66.5407
70.1274
73.8273
77.6421
81.5786
85.6491
89.8706
94.2657
98.8627
103.696
108.808
114.245
120.065
126.331
133.116
140.501
148.578
157.446
167.218
178.017
189.975
203.241
217.976
234.354
252.567
272.831
295.389
320.513
348.549
379.959
415.164
454.73
499.38
550.05
607.908
672.175
737.915
801.453
860.518
913.317
958.564
995.527
1023.99
1044.24
1057.04
1062.85
1062.24
1055.95
1044.74
1029.44
1010.82
989.598
966.416
941.831
916.311
890.244
863.941
837.652
811.572
785.865
760.662
736.11
712.219
688.998
666.446
644.559
623.33
602.75
582.805
563.478
544.749
526.596
508.995
491.919
475.343
459.242
443.594
428.38
413.582
399.189
385.189
371.577
358.346
345.495
333.022
320.927
309.211