/*--------------------------------*- C++ -*----------------------------------*\
| =========                 |                                                 |
| \\      /  F ield         | OpenFOAM: The Open Source CFD Toolbox           |
|  \\    /   O peration     | Version:  1.4.2                                 |
|   \\  /    A nd           | Web:      http://www.openfoam.org               |
|    \\/     M anipulation  |                                                 |
\*---------------------------------------------------------------------------*/
FoamFile
{
    version     2.0;
    format      ascii;
    class       volScalarField;
    object      k;
    location    "200";
}
// * * * * * * * * * * * * * * * * * * * * * * * * * * * * * * * * * * * * * //

dimensions      [0 2 -2 0 0 0 0];

internalField   nonuniform List<scalar> 
12225
(
0.315115
0.271061
0.237879
0.212494
0.192881
0.177662
0.165867
0.156796
0.149929
0.144874
0.141325
0.139041
0.137826
0.137517
0.137975
0.139081
0.140734
0.143047
0.365358
0.357608
0.353818
0.353665
0.356699
0.362559
0.370922
0.381493
0.394005
0.408209
0.423869
0.440758
0.458651
0.477329
0.496572
0.516147
0.535735
0.555807
0.370184
0.364631
0.360177
0.356889
0.354756
0.353728
0.353734
0.354695
0.356527
0.359152
0.36249
0.366463
0.370991
0.375986
0.381344
0.386922
0.392503
0.397884
0.371731
0.367466
0.363473
0.359982
0.357
0.354528
0.352556
0.351055
0.349991
0.349327
0.349023
0.349043
0.349346
0.349891
0.350632
0.351514
0.352481
0.353537
0.372433
0.369034
0.365566
0.362298
0.359302
0.356596
0.354181
0.352044
0.35017
0.348543
0.347144
0.34595
0.344941
0.344094
0.343389
0.342816
0.342407
0.342337
0.372746
0.369927
0.366963
0.364018
0.361198
0.358549
0.356087
0.353815
0.351726
0.34981
0.348057
0.346453
0.344988
0.343652
0.342443
0.341389
0.340626
0.340665
0.372875
0.370395
0.367824
0.365222
0.362658
0.360176
0.357804
0.355561
0.353452
0.351475
0.349626
0.347899
0.346286
0.344785
0.343412
0.342254
0.341631
0.342727
0.372916
0.370585
0.368229
0.365859
0.363509
0.361206
0.358973
0.356827
0.354778
0.352831
0.350988
0.349249
0.347613
0.346088
0.344712
0.343647
0.343495
0.346478
0.37293
0.370676
0.368447
0.366232
0.364043
0.361893
0.359794
0.35776
0.355798
0.353916
0.352117
0.350404
0.348783
0.347273
0.345939
0.345025
0.345446
0.350574
0.372935
0.37072
0.368572
0.36647
0.36441
0.362395
0.360428
0.358516
0.356662
0.354873
0.35315
0.351499
0.349928
0.348466
0.34721
0.346521
0.347737
0.355757
0.372935
0.370737
0.368632
0.366599
0.36463
0.362718
0.360861
0.359059
0.357312
0.355622
0.353991
0.352421
0.350923
0.349536
0.348398
0.348024
0.350332
0.362268
0.372934
0.370741
0.368654
0.366657
0.36474
0.362895
0.361115
0.359397
0.357738
0.356136
0.35459
0.353103
0.351687
0.35039
0.349401
0.349442
0.353203
0.370336
0.372933
0.370739
0.368658
0.366675
0.364783
0.362973
0.361239
0.359574
0.357975
0.356437
0.354959
0.353541
0.352197
0.350991
0.350171
0.350716
0.356317
0.380057
0.372934
0.370737
0.368655
0.366677
0.364793
0.362999
0.361286
0.359649
0.358084
0.356585
0.355151
0.353782
0.352494
0.351365
0.350715
0.351826
0.359605
0.391232
0.372935
0.370736
0.368653
0.366674
0.364793
0.363004
0.3613
0.359676
0.358126
0.356648
0.355239
0.353899
0.352648
0.351578
0.351082
0.352773
0.362913
0.403146
0.372938
0.370738
0.368653
0.366674
0.364793
0.363005
0.361305
0.359686
0.358145
0.356678
0.355281
0.353958
0.352729
0.351698
0.351325
0.353529
0.365861
0.414089
0.372942
0.370742
0.368656
0.366677
0.364797
0.363011
0.361313
0.359698
0.358162
0.356701
0.355313
0.353999
0.352782
0.351772
0.351463
0.353955
0.367598
0.42066
0.372947
0.370748
0.368663
0.366684
0.364806
0.363021
0.361326
0.359714
0.358182
0.356726
0.355342
0.354034
0.35282
0.351805
0.35146
0.353798
0.366871
0.418078
0.372952
0.370754
0.368669
0.366692
0.364814
0.363032
0.361338
0.359729
0.358199
0.356744
0.355361
0.354052
0.352832
0.351787
0.351302
0.353027
0.363557
0.405744
0.372949
0.370752
0.36867
0.366694
0.364817
0.363035
0.36134
0.359728
0.358193
0.356732
0.355342
0.354021
0.352781
0.351685
0.35101
0.351939
0.359177
0.389348
0.372944
0.370748
0.368666
0.366688
0.364807
0.363015
0.361307
0.359677
0.35812
0.356633
0.355212
0.353856
0.352572
0.351401
0.350525
0.350708
0.354956
0.374061
0.372938
0.370741
0.368652
0.366658
0.364752
0.362924
0.36117
0.359486
0.357867
0.356312
0.354818
0.353385
0.352018
0.35074
0.349662
0.349236
0.351225
0.362014
0.372931
0.370719
0.368598
0.36655
0.364567
0.362645
0.360781
0.358976
0.357231
0.355546
0.353921
0.352358
0.35086
0.349441
0.348161
0.347267
0.347713
0.352971
0.372913
0.370649
0.368429
0.366239
0.364082
0.361965
0.359897
0.357885
0.355936
0.354055
0.352245
0.350508
0.348847
0.347267
0.345799
0.344564
0.344032
0.345923
0.372859
0.370441
0.36798
0.365493
0.363018
0.360582
0.358207
0.355911
0.353704
0.351591
0.349576
0.347658
0.345837
0.344114
0.342499
0.341044
0.339953
0.339977
0.372697
0.369896
0.366948
0.363955
0.361005
0.358146
0.355403
0.352794
0.350325
0.347997
0.345808
0.343754
0.34183
0.340031
0.338355
0.336817
0.335488
0.334642
0.372234
0.368611
0.364836
0.36112
0.357564
0.354214
0.351089
0.348197
0.345533
0.343089
0.340854
0.338815
0.336959
0.335272
0.333743
0.332364
0.331145
0.330163
0.370949
0.365693
0.360558
0.355809
0.3515
0.34766
0.344286
0.34136
0.33885
0.33672
0.334936
0.333463
0.332268
0.331322
0.330597
0.330068
0.329713
0.329532
0.366354
0.357119
0.349253
0.342909
0.338008
0.334426
0.332015
0.33062
0.330101
0.330335
0.331216
0.33265
0.334557
0.336866
0.339516
0.342451
0.345617
0.349009
0.329179
0.293648
0.26535
0.242409
0.223561
0.207909
0.194795
0.183724
0.174319
0.166287
0.159398
0.15347
0.148354
0.143929
0.140098
0.136777
0.133899
0.131407
0.034269
0.0472108
0.0707382
0.0980612
0.128405
0.15727
0.18593
0.214604
0.243345
0.272183
0.301141
0.33024
0.359497
0.388929
0.418552
0.448383
0.478436
0.508729
0.539279
0.570104
0.601222
0.632652
0.664413
0.696526
0.72901
0.761884
0.795171
0.828888
0.863056
0.897693
0.932818
0.968449
1.0046
1.04129
1.07853
1.11632
1.15469
1.19363
1.23314
1.27324
1.3139
1.35511
1.39687
1.43915
1.48193
1.52516
1.56881
1.61284
1.65721
1.70188
1.74683
1.79206
1.8376
1.88356
1.92923
1.97374
2.01676
2.05796
2.09699
2.13347
2.16706
2.19737
2.22408
2.24685
2.26539
2.27945
2.28881
2.29333
2.2929
2.28748
2.27708
2.26177
2.24169
2.217
2.18793
2.15474
2.11771
2.07715
2.0334
1.9868
1.9377
1.88645
1.83341
1.77891
1.7233
1.66693
1.61012
1.55333
1.49734
1.44269
1.39117
1.34545
1.30221
1.26019
1.21909
1.17887
1.13956
1.10121
1.06388
1.02763
0.992473
0.958457
0.925598
0.893909
0.863396
0.834056
0.805881
0.778856
0.752964
0.728181
0.704481
0.681837
0.660218
0.639592
0.619925
0.601183
0.583332
0.566337
0.550163
0.534775
0.520141
0.506225
0.492995
0.480421
0.468469
0.457112
0.446318
0.436062
0.426314
0.417049
0.408243
0.39987
0.391907
0.384332
0.377123
0.37026
0.363722
0.35749
0.351546
0.345872
0.340451
0.335267
0.330305
0.325548
0.320984
0.316598
0.312377
0.30831
0.304385
0.30059
0.296916
0.293352
0.289891
0.286524
0.283243
0.280042
0.276914
0.273854
0.270858
0.26792
0.265037
0.262206
0.259424
0.25669
0.254001
0.251354
0.24875
0.246184
0.243654
0.241156
0.238686
0.236234
0.233793
0.231369
0.228946
0.226486
0.223396
0.210983
0.171142
0.146486
0.0623963
0.120783
0.160034
0.197109
0.235117
0.273398
0.311413
0.348937
0.385984
0.42266
0.459095
0.495412
0.53172
0.568115
0.604681
0.641492
0.678614
0.716104
0.754019
0.792408
0.831319
0.870799
0.910892
0.951646
0.993106
1.03532
1.07833
1.1222
1.16697
1.2127
1.25945
1.30728
1.35624
1.4064
1.45783
1.5106
1.56478
1.62044
1.67766
1.73651
1.79709
1.85945
1.92368
1.98985
2.05804
2.12831
2.20071
2.27529
2.35207
2.43106
2.51224
2.59554
2.68086
2.76806
2.85624
2.94519
3.03445
3.12345
3.21149
3.29778
3.38144
3.46156
3.53716
3.60729
3.67101
3.72745
3.7758
3.81539
3.84564
3.86616
3.87666
3.87702
3.86727
3.84758
3.81822
3.77959
3.73218
3.67658
3.6134
3.54333
3.46708
3.38538
3.29898
3.20864
3.1151
3.01916
2.92155
2.82331
2.72526
2.62884
2.53639
2.44761
2.36121
2.27671
2.19404
2.1133
2.03466
1.95824
1.88417
1.81254
1.74344
1.67689
1.61292
1.55154
1.49271
1.43643
1.38263
1.33126
1.28227
1.23558
1.19111
1.1488
1.10857
1.07032
1.03398
0.999474
0.966713
0.935621
0.906119
0.878133
0.851588
0.826413
0.80254
0.779902
0.758435
0.738078
0.718771
0.700458
0.683084
0.666598
0.650949
0.63609
0.621975
0.60856
0.595803
0.583663
0.572102
0.561082
0.550569
0.540527
0.530925
0.521731
0.512914
0.504447
0.496303
0.488454
0.480877
0.473548
0.466445
0.459548
0.452837
0.446294
0.439902
0.433646
0.427511
0.421486
0.415558
0.409717
0.403955
0.398264
0.392637
0.387068
0.381554
0.376091
0.370676
0.365308
0.359984
0.354704
0.349467
0.344271
0.339116
0.333998
0.328911
0.323823
0.318757
0.313755
0.308817
0.303031
0.295376
0.288959
0.0940117
0.183778
0.237659
0.283581
0.328065
0.372653
0.417321
0.461865
0.506221
0.550433
0.594592
0.638802
0.68316
0.727753
0.772658
0.817938
0.863649
0.909838
0.956545
1.00381
1.05166
1.10014
1.14927
1.19909
1.24963
1.30093
1.35302
1.40596
1.45978
1.51454
1.57028
1.62707
1.68497
1.74405
1.80438
1.86604
1.92912
1.99371
2.05991
2.12781
2.19754
2.26922
2.34296
2.41889
2.49716
2.57789
2.66121
2.74726
2.83614
2.92795
3.02274
3.12053
3.22127
3.32477
3.43058
3.53846
3.64793
3.75832
3.86883
3.97847
4.08614
4.19064
4.29067
4.38494
4.47215
4.55104
4.6205
4.67949
4.72719
4.76292
4.78622
4.79679
4.79455
4.77961
4.75224
4.71286
4.66204
4.60043
4.52883
4.44806
4.35902
4.26264
4.15985
4.05161
3.93881
3.82243
3.70314
3.58145
3.45936
3.33855
3.21974
3.10353
2.9898
2.87861
2.77011
2.66451
2.56197
2.46264
2.36667
2.27412
2.18507
2.09953
2.0175
1.93896
1.86387
1.79217
1.72376
1.65858
1.59652
1.53748
1.48136
1.42803
1.37739
1.32932
1.28371
1.24045
1.19942
1.16053
1.12366
1.08872
1.0556
1.02421
0.994468
0.966276
0.939554
0.914222
0.890204
0.867425
0.845817
0.825312
0.805846
0.787358
0.76979
0.753085
0.73719
0.722055
0.70763
0.693867
0.680723
0.668155
0.656121
0.644582
0.633501
0.622842
0.612571
0.602656
0.593067
0.583773
0.574749
0.565968
0.557407
0.549044
0.540858
0.53283
0.524944
0.517184
0.509536
0.501988
0.49453
0.487153
0.479849
0.472612
0.465437
0.45832
0.451259
0.444252
0.437299
0.430398
0.423551
0.416756
0.410016
0.403328
0.396692
0.390103
0.383548
0.377089
0.370753
0.364487
0.358553
0.354326
0.117845
0.234558
0.301457
0.355862
0.406278
0.455907
0.505606
0.555505
0.605616
0.655968
0.706614
0.757618
0.809044
0.860947
0.913373
0.966358
1.01993
1.0741
1.1289
1.18432
1.24036
1.29705
1.35437
1.41233
1.47094
1.53022
1.59016
1.65079
1.71214
1.77423
1.83709
1.90077
1.96532
2.03079
2.09726
2.16479
2.23347
2.30342
2.37473
2.44753
2.52197
2.59818
2.67636
2.75666
2.83929
2.92446
3.01236
3.10323
3.19725
3.29463
3.39551
3.49999
3.60813
3.71972
3.83477
3.95306
4.07413
4.19731
4.32173
4.44631
4.56981
4.69083
4.80788
4.91941
5.02385
5.11969
5.20555
5.28015
5.34242
5.39147
5.42664
5.44747
5.45374
5.44543
5.42273
5.38603
5.33584
5.27287
5.19793
5.1119
5.01578
4.91058
4.79733
4.67711
4.55084
4.41964
4.28389
4.1465
4.00842
3.87084
3.73464
3.60046
3.46864
3.3395
3.21334
3.09046
2.97111
2.85548
2.74375
2.63601
2.53236
2.43283
2.33741
2.24609
2.15881
2.0755
1.99607
1.92041
1.84842
1.77996
1.71492
1.65314
1.59452
1.53889
1.48614
1.43612
1.38871
1.34377
1.30119
1.26084
1.22261
1.18639
1.15206
1.11952
1.08869
1.05945
1.03173
1.00544
0.980486
0.956801
0.934308
0.912934
0.892613
0.873279
0.854869
0.837325
0.820589
0.804608
0.789329
0.774702
0.760681
0.74722
0.734277
0.72181
0.70978
0.69815
0.686886
0.675954
0.665324
0.654967
0.644855
0.634964
0.625271
0.615755
0.606397
0.59718
0.588088
0.579109
0.57023
0.561443
0.552739
0.544112
0.535558
0.527071
0.518651
0.510296
0.502006
0.493782
0.485626
0.477538
0.469522
0.461582
0.453719
0.445943
0.438261
0.430716
0.423407
0.41647
0.41029
0.405794
0.136539
0.273427
0.350635
0.41245
0.468247
0.522175
0.575835
0.629774
0.684192
0.739182
0.794807
0.851117
0.908152
0.965939
1.0245
1.08383
1.14393
1.2048
1.2664
1.32871
1.39171
1.45535
1.51962
1.58449
1.64991
1.71586
1.78234
1.84931
1.91676
1.9847
2.05313
2.12206
2.19152
2.26154
2.33217
2.40347
2.47553
2.54844
2.62231
2.69728
2.77352
2.85119
2.93052
3.01172
3.09506
3.18081
3.26926
3.36073
3.45551
3.55391
3.65618
3.76255
3.87314
3.98797
4.10724
4.23082
4.35832
4.4891
4.62225
4.75665
4.89098
5.02372
5.15324
5.27781
5.3957
5.50522
5.60479
5.69297
5.7685
5.83033
5.8776
5.9097
5.9262
5.92696
5.91203
5.88166
5.83627
5.77649
5.7031
5.61697
5.51906
5.41043
5.2921
5.16534
5.03068
4.89064
4.74658
4.59992
4.45197
4.30379
4.1563
4.01022
3.8661
3.72446
3.58575
3.45034
3.31859
3.19076
3.06707
2.94768
2.83271
2.72221
2.61621
2.51471
2.41765
2.32497
2.23657
2.15235
2.07219
1.99596
1.92351
1.8547
1.78939
1.72741
1.66863
1.61288
1.56004
1.50995
1.46248
1.41749
1.37486
1.33445
1.29615
1.25984
1.22541
1.19277
1.16179
1.1324
1.1045
1.078
1.05281
1.02886
1.00608
0.984378
0.963701
0.943976
0.925142
0.907137
0.889903
0.873387
0.857534
0.842296
0.827624
0.813473
0.799801
0.786565
0.773729
0.761255
0.749111
0.737263
0.725684
0.714346
0.703224
0.692295
0.681539
0.670938
0.660476
0.650138
0.639913
0.629791
0.619763
0.609823
0.599968
0.590192
0.580495
0.570877
0.561338
0.551881
0.542508
0.533223
0.524033
0.514943
0.505966
0.497117
0.488428
0.479938
0.471794
0.464172
0.457406
0.452111
0.150638
0.301214
0.385599
0.45305
0.51321
0.570581
0.627248
0.684123
0.741618
0.799933
0.859177
0.919407
0.980656
1.04294
1.10624
1.17056
1.23585
1.30207
1.36917
1.43711
1.5058
1.5752
1.64523
1.71582
1.78691
1.85843
1.93033
2.00255
2.07503
2.14774
2.22063
2.2937
2.36692
2.44029
2.51383
2.58757
2.66158
2.73591
2.81069
2.88603
2.9621
3.0391
3.11725
3.19683
3.27815
3.36156
3.44743
3.53618
3.62823
3.72402
3.82393
3.92834
4.0375
4.15162
4.27112
4.396
4.52593
4.66031
4.79824
4.93856
5.0799
5.22065
5.35911
5.49344
5.62182
5.74243
5.8536
5.95378
6.04159
6.11586
6.17556
6.21989
6.24827
6.26033
6.25594
6.23519
6.19832
6.1458
6.07832
5.99664
5.9016
5.79443
5.6757
5.54764
5.41179
5.26965
5.12266
4.9722
4.81951
4.66567
4.51165
4.35828
4.20628
4.05631
3.90893
3.76465
3.62389
3.48701
3.35429
3.22596
3.10217
2.98303
2.86859
2.75887
2.65384
2.55346
2.45763
2.36627
2.27924
2.19642
2.11767
2.04282
1.97174
1.90426
1.84022
1.77946
1.72184
1.6672
1.61539
1.56626
1.51968
1.47551
1.43363
1.3939
1.3562
1.32044
1.28648
1.25424
1.2236
1.19449
1.16679
1.14044
1.11534
1.09141
1.06859
1.04679
1.02596
1.00602
0.986906
0.968567
0.950943
0.93398
0.917625
0.90183
0.886549
0.871738
0.857355
0.843362
0.829722
0.816402
0.80337
0.790598
0.77806
0.76573
0.753589
0.741617
0.729797
0.718115
0.706558
0.695117
0.683782
0.67255
0.661413
0.650372
0.639423
0.628569
0.617811
0.607152
0.596598
0.586154
0.575831
0.565638
0.555596
0.54573
0.536083
0.526707
0.517754
0.509397
0.501899
0.495662
0.160473
0.319139
0.407615
0.478578
0.541705
0.601462
0.660163
0.718967
0.778469
0.838975
0.900646
0.963564
1.02776
1.09325
1.16
1.22799
1.29715
1.36744
1.43876
1.51105
1.58421
1.65815
1.73277
1.80797
1.88364
1.9597
2.03603
2.11254
2.18915
2.26576
2.34229
2.41869
2.49488
2.57082
2.64649
2.72186
2.79696
2.87181
2.94647
3.02106
3.09571
3.1706
3.24596
3.32209
3.39933
3.47809
3.55884
3.64209
3.72844
3.81845
3.91272
4.01179
4.11611
4.22613
4.34249
4.46532
4.59438
4.72911
4.8686
5.01165
5.15684
5.30251
5.44688
5.58808
5.72422
5.85347
5.97411
6.08458
6.18346
6.26948
6.34149
6.39853
6.43981
6.46478
6.47309
6.46457
6.43929
6.39747
6.33964
6.26652
6.17837
6.07743
5.96474
5.84178
5.71001
5.57091
5.42587
5.27621
5.12316
4.96787
4.81138
4.65465
4.49852
4.34377
4.19109
4.04108
3.89426
3.75107
3.61188
3.47697
3.34655
3.22079
3.09977
2.98355
2.87215
2.76551
2.66359
2.5663
2.47353
2.38514
2.30102
2.221
2.14493
2.07266
2.00402
1.93885
1.87699
1.81829
1.76259
1.70973
1.65958
1.61199
1.56682
1.52395
1.48324
1.44458
1.40784
1.37293
1.33973
1.30815
1.27807
1.24943
1.22211
1.19605
1.17115
1.14735
1.12457
1.10274
1.0818
1.06167
1.0423
1.02363
1.00561
0.988181
0.971298
0.954915
0.938986
0.923472
0.908335
0.893538
0.879049
0.864838
0.850878
0.837143
0.823612
0.810266
0.797085
0.784057
0.771169
0.758411
0.745774
0.733253
0.720844
0.708546
0.696358
0.684281
0.67232
0.660478
0.648764
0.637185
0.625755
0.61449
0.603414
0.592562
0.581987
0.57175
0.561981
0.552839
0.54452
0.537293
0.166439
0.328597
0.418377
0.490689
0.555231
0.616209
0.675956
0.735752
0.796303
0.857995
0.921036
0.985529
1.05152
1.11901
1.18797
1.25837
1.33015
1.40321
1.47749
1.55286
1.62924
1.70649
1.7845
1.86315
1.94229
2.02181
2.10156
2.18142
2.26126
2.34094
2.42035
2.49936
2.57788
2.65579
2.73301
2.80948
2.88514
2.95996
3.03396
3.10716
3.17966
3.2516
3.32317
3.39464
3.46637
3.53881
3.61248
3.68804
3.76621
3.8478
3.93363
4.02452
4.12121
4.22443
4.33509
4.45345
4.57934
4.71218
4.85101
4.99456
5.14128
5.28945
5.43722
5.58272
5.72404
5.85937
5.98707
6.10564
6.21372
6.31004
6.39333
6.46249
6.51666
6.55511
6.57719
6.58247
6.57093
6.54226
6.49709
6.4363
6.36056
6.27113
6.16914
6.05588
5.93269
5.80093
5.66192
5.517
5.36743
5.21443
5.05911
4.90253
4.74566
4.58937
4.43445
4.28161
4.13146
3.98452
3.84124
3.70197
3.567
3.43653
3.31071
3.18963
3.07335
2.96186
2.85512
2.75308
2.65564
2.56268
2.47409
2.38972
2.30943
2.23306
2.16045
2.09144
2.02587
1.96358
1.90442
1.84823
1.79487
1.74418
1.69602
1.65027
1.60678
1.56544
1.52612
1.48871
1.4531
1.41918
1.38685
1.35602
1.32658
1.29846
1.27157
1.24582
1.22115
1.19747
1.17472
1.15283
1.13174
1.11139
1.09171
1.07266
1.05418
1.03623
1.01876
1.00173
0.985091
0.968816
0.952869
0.937218
0.921835
0.906695
0.891775
0.877056
0.862519
0.84815
0.833937
0.819869
0.80594
0.792143
0.778475
0.764936
0.751525
0.738246
0.725102
0.712101
0.699251
0.686564
0.674056
0.661747
0.649667
0.637858
0.626376
0.615297
0.604696
0.594736
0.585549
0.577319
0.168978
0.331106
0.419838
0.491497
0.555926
0.616971
0.67682
0.736741
0.797473
0.85944
0.92288
0.987917
1.05461
1.12296
1.19296
1.26456
1.33769
1.41227
1.48821
1.56539
1.64369
1.72299
1.80314
1.884
1.96542
2.04724
2.12931
2.21146
2.29353
2.37536
2.45678
2.53764
2.61777
2.69703
2.77526
2.85234
2.92816
3.0026
3.0756
3.14712
3.21717
3.28581
3.35316
3.41945
3.48498
3.55019
3.61567
3.68215
3.75054
3.82189
3.89737
3.97822
4.06556
4.16062
4.26449
4.37755
4.4996
4.62995
4.76747
4.91067
5.0578
5.20698
5.35629
5.50389
5.64788
5.78647
5.9182
6.04184
6.15623
6.26023
6.35238
6.43158
6.49706
6.54806
6.58355
6.60275
6.60578
6.59248
6.56306
6.51795
6.45772
6.3832
6.29531
6.19516
6.08393
5.96286
5.83327
5.69646
5.55372
5.40631
5.25542
5.10219
4.94766
4.79281
4.63852
4.48558
4.33468
4.18645
4.04138
3.89992
3.7624
3.62911
3.50024
3.37594
3.2563
3.14135
3.03109
2.92548
2.82447
2.72795
2.63582
2.54796
2.46423
2.38447
2.30855
2.2363
2.16757
2.10221
2.04005
1.98094
1.92474
1.8713
1.82047
1.77212
1.72611
1.68233
1.64063
1.60092
1.56306
1.52696
1.49251
1.45961
1.42816
1.39808
1.36927
1.34165
1.31515
1.28969
1.26518
1.24158
1.2188
1.19679
1.17549
1.15484
1.13479
1.11529
1.0963
1.07776
1.05964
1.0419
1.02451
1.00744
0.990648
0.97412
0.957829
0.941756
0.925883
0.910195
0.89468
0.879329
0.864133
0.849088
0.834192
0.819442
0.804842
0.790394
0.776103
0.761979
0.748032
0.734275
0.720727
0.707413
0.694366
0.681629
0.669264
0.657343
0.645922
0.635135
0.625067
0.615852
0.168523
0.328236
0.414107
0.483431
0.546399
0.606476
0.665574
0.724833
0.784948
0.846342
0.909269
0.973872
1.04022
1.10835
1.17823
1.24984
1.3231
1.39795
1.47427
1.55195
1.63087
1.71089
1.79187
1.87364
1.95605
2.03892
2.12207
2.20533
2.28851
2.37141
2.45385
2.53562
2.61653
2.69638
2.77498
2.85213
2.92766
3.0014
3.0732
3.14293
3.21053
3.27594
3.33922
3.40048
3.45997
3.51808
3.57539
3.6327
3.69109
3.75188
3.81668
3.88732
3.96553
4.05318
4.15151
4.26083
4.38072
4.51019
4.6477
4.79135
4.93904
5.08864
5.23822
5.38602
5.53006
5.66852
5.80041
5.92492
6.04134
6.14906
6.24614
6.33152
6.40486
6.46542
6.51231
6.5448
6.56242
6.56479
6.55174
6.52331
6.47979
6.42167
6.34965
6.2646
6.16753
6.05958
5.94196
5.81594
5.68278
5.54377
5.40013
5.25305
5.10364
4.95294
4.80191
4.65142
4.50223
4.35502
4.21039
4.06884
3.93077
3.79652
3.66636
3.54047
3.41899
3.302
3.18954
3.08161
2.97816
2.87913
2.78444
2.69399
2.60764
2.52526
2.44673
2.37189
2.3006
2.23269
2.16803
2.10647
2.04785
1.99204
1.93889
1.88827
1.84003
1.79407
1.75024
1.70844
1.66854
1.63044
1.59403
1.55921
1.52589
1.49396
1.46335
1.43396
1.40572
1.37855
1.35237
1.32711
1.30271
1.27911
1.25623
1.23404
1.21246
1.19145
1.17097
1.15097
1.13141
1.11225
1.09346
1.07499
1.05684
1.03896
1.02134
1.00396
0.986791
0.969828
0.953058
0.936469
0.920056
0.903812
0.887737
0.871829
0.856091
0.840527
0.825144
0.80995
0.794959
0.780186
0.765652
0.751383
0.737416
0.723795
0.71058
0.69784
0.685623
0.674018
0.663083
0.652922
0.165362
0.321398
0.403269
0.469096
0.529605
0.587898
0.645519
0.7034
0.762148
0.822163
0.883705
0.946937
1.01195
1.07879
1.14745
1.2179
1.2901
1.36396
1.43939
1.51628
1.59451
1.67392
1.75438
1.83572
1.91777
2.00036
2.08329
2.16638
2.24943
2.33222
2.41454
2.49618
2.5769
2.65648
2.73469
2.81128
2.88605
2.95876
3.0292
3.09719
3.16257
3.22522
3.2851
3.34224
3.39681
3.44914
3.4998
3.54962
3.59981
3.65198
3.70825
3.77123
3.84335
3.92737
4.02442
4.13437
4.2563
4.38858
4.529
4.67501
4.82402
4.97367
5.122
5.26783
5.40892
5.54318
5.67056
5.79083
5.90371
6.00873
6.10515
6.19225
6.26941
6.33589
6.39081
6.43333
6.4627
6.4783
6.47965
6.46647
6.43872
6.3966
6.3405
6.27105
6.18906
6.09547
5.99138
5.87794
5.75636
5.62789
5.49375
5.35513
5.21318
5.06899
4.92355
4.7778
4.63255
4.48855
4.34644
4.2068
4.07009
3.93671
3.80696
3.68111
3.55932
3.44173
3.3284
3.21939
3.11468
3.01423
2.91799
2.82588
2.73778
2.6536
2.57321
2.49646
2.42324
2.35339
2.28677
2.22325
2.16268
2.10492
2.04984
1.9973
1.94717
1.89932
1.85364
1.81
1.7683
1.72841
1.69024
1.65369
1.61865
1.58504
1.55276
1.52173
1.49187
1.4631
1.43535
1.40854
1.3826
1.35749
1.33312
1.30945
1.28642
1.26398
1.24209
1.22069
1.19975
1.17923
1.1591
1.13932
1.11986
1.1007
1.08182
1.06319
1.0448
1.02663
1.00868
0.990921
0.973361
0.955991
0.938809
0.921816
0.905013
0.888407
0.872003
0.855813
0.83985
0.824131
0.808679
0.793521
0.778695
0.764245
0.750228
0.736708
0.723737
0.711341
0.699577
0.688532
0.15943
0.311294
0.388961
0.451041
0.508675
0.564672
0.620226
0.676082
0.732759
0.790633
0.849967
0.91094
0.973666
1.03821
1.10458
1.17277
1.24275
1.31443
1.38773
1.46256
1.53878
1.61626
1.69486
1.77442
1.85477
1.93573
2.01712
2.09874
2.18038
2.26184
2.34289
2.42329
2.50282
2.58123
2.65827
2.73369
2.80724
2.87867
2.94774
3.01422
3.07792
3.13869
3.19643
3.25113
3.30292
3.35212
3.39929
3.44534
3.49162
3.54005
3.5933
3.65472
3.72771
3.81521
3.91843
4.03585
4.16559
4.30516
4.45144
4.60121
4.75147
4.89968
5.04396
5.18297
5.3157
5.44145
5.56005
5.67157
5.77614
5.87379
5.96431
6.04737
6.12249
6.18906
6.24633
6.29342
6.32949
6.35373
6.36543
6.36404
6.34923
6.32086
6.27906
6.22416
6.1567
6.07743
5.98723
5.8871
5.77815
5.66152
5.53838
5.40989
5.27718
5.14135
5.00342
4.86433
4.72495
4.58607
4.44837
4.31247
4.17889
4.04807
3.92038
3.79612
3.6755
3.5587
3.44584
3.33699
3.23219
3.13142
3.03465
2.94184
2.8529
2.76774
2.68625
2.60833
2.53385
2.46267
2.39468
2.32973
2.2677
2.20846
2.15186
2.0978
2.04613
1.99675
1.94952
1.90434
1.86109
1.81967
1.77996
1.74189
1.70533
1.67022
1.63645
1.60394
1.57261
1.54238
1.51318
1.48495
1.4576
1.43108
1.40533
1.3803
1.35592
1.33214
1.30893
1.28624
1.26401
1.24223
1.22085
1.19984
1.17918
1.15883
1.13878
1.119
1.09947
1.08019
1.06114
1.04232
1.0237
1.0053
0.987108
0.969123
0.951349
0.933793
0.916461
0.899365
0.882519
0.865941
0.849654
0.833688
0.818077
0.802867
0.788111
0.773866
0.760184
0.747057
0.734528
0.722675
0.152045
0.297694
0.372222
0.431565
0.486611
0.540114
0.593192
0.646511
0.700542
0.755637
0.812061
0.870007
0.929607
0.990944
1.05406
1.11896
1.18561
1.25398
1.32397
1.3955
1.46847
1.54274
1.61818
1.69464
1.77197
1.84999
1.92853
2.00741
2.08642
2.16536
2.24402
2.32216
2.39957
2.476
2.55122
2.62497
2.69701
2.76711
2.83503
2.90058
2.96356
3.02384
3.08135
3.13612
3.18834
3.23839
3.28697
3.33515
3.38456
3.43757
3.49763
3.56845
3.6539
3.75528
3.87236
4.00337
4.14535
4.29464
4.44738
4.59992
4.74921
4.89294
5.02959
5.15837
5.27899
5.3915
5.49625
5.59379
5.6847
5.76944
5.84828
5.92125
5.98815
6.04859
6.10196
6.14747
6.18428
6.2115
6.22828
6.2339
6.22776
6.20947
6.17887
6.13601
6.08116
6.0148
5.9376
5.85036
5.75401
5.64955
5.53803
5.42055
5.29818
5.17196
5.0429
4.91193
4.77995
4.64774
4.51602
4.38543
4.25653
4.12979
4.00563
3.88438
3.76631
3.65163
3.54049
3.433
3.32923
3.2292
3.13292
3.04036
2.95146
2.86616
2.78437
2.706
2.63094
2.55908
2.4903
2.42449
2.36152
2.30127
2.24362
2.18845
2.13564
2.08508
2.03665
1.99023
1.94574
1.90305
1.86208
1.82272
1.78487
1.74846
1.7134
1.6796
1.64698
1.61546
1.58499
1.55548
1.52686
1.49909
1.4721
1.44583
1.42023
1.39525
1.37084
1.34697
1.32359
1.30066
1.27815
1.25604
1.23428
1.21286
1.19175
1.17094
1.1504
1.13012
1.1101
1.09031
1.07076
1.05144
1.03235
1.01349
0.994855
0.976459
0.958308
0.940414
0.922789
0.905454
0.888432
0.87175
0.855445
0.839558
0.824139
0.80924
0.794904
0.781127
0.767911
0.75534
0.142767
0.281499
0.354009
0.411694
0.464671
0.515771
0.566231
0.616746
0.66778
0.719679
0.772708
0.827072
0.88292
0.940355
0.999439
1.0602
1.12263
1.18671
1.25237
1.31954
1.38813
1.45805
1.52916
1.60135
1.67447
1.74838
1.82293
1.89794
1.97326
2.04869
2.12405
2.19914
2.27377
2.34774
2.42084
2.49286
2.56363
2.63295
2.70066
2.76662
2.83074
2.89299
2.9534
3.01217
3.06964
3.12642
3.18346
3.2422
3.30473
3.37419
3.45462
3.54954
3.6604
3.78672
3.92651
4.07654
4.23271
4.3907
4.5465
4.69675
4.839
4.97172
5.09419
5.20642
5.30889
5.40239
5.48786
5.56631
5.63872
5.70587
5.76833
5.82642
5.88015
5.92933
5.97349
6.01198
6.04401
6.06871
6.0852
6.09264
6.0903
6.0776
6.05417
6.0198
5.97453
5.91858
5.85237
5.77649
5.69166
5.5987
5.49853
5.39209
5.28035
5.16428
5.04482
4.92287
4.79929
4.67486
4.5503
4.42624
4.30326
4.18187
4.06249
3.9455
3.83118
3.71978
3.6115
3.50646
3.40478
3.3065
3.21166
3.12026
3.03227
2.94764
2.86631
2.78821
2.71326
2.64135
2.57239
2.50628
2.4429
2.38214
2.3239
2.26806
2.21452
2.16316
2.11388
2.06658
2.02115
1.9775
1.93554
1.89516
1.85628
1.81882
1.78268
1.7478
1.7141
1.6815
1.64993
1.61932
1.58962
1.56076
1.53269
1.50535
1.47868
1.45265
1.4272
1.4023
1.37791
1.35398
1.33049
1.3074
1.2847
1.26234
1.24032
1.21861
1.1972
1.17606
1.1552
1.13459
1.11424
1.09414
1.07428
1.05467
1.0353
1.0162
0.99735
0.978778
0.960495
0.942518
0.924871
0.907581
0.890682
0.874215
0.858223
0.842754
0.827846
0.81351
0.799691
0.786501
0.13205
0.263995
0.33522
0.391891
0.443237
0.492182
0.54011
0.587787
0.635703
0.684213
0.733586
0.784033
0.835719
0.888763
0.943249
0.999229
1.05672
1.11573
1.17622
1.23815
1.30147
1.36608
1.43192
1.4989
1.56689
1.63582
1.70555
1.77597
1.84695
1.91838
1.99011
2.06202
2.13397
2.20583
2.27749
2.34883
2.41976
2.49021
2.56014
2.62956
2.69852
2.76719
2.83583
2.90489
2.97502
3.04722
3.1229
3.20412
3.29386
3.3961
3.51446
3.64816
3.79575
3.95416
4.11931
4.28661
4.45152
4.61007
4.75915
4.89667
5.0215
5.1334
5.23283
5.32073
5.39839
5.46722
5.52864
5.58398
5.63442
5.6809
5.72411
5.76444
5.80203
5.83673
5.86819
5.89585
5.919
5.93682
5.94848
5.95313
5.95
5.93843
5.9179
5.88806
5.84875
5.79998
5.74198
5.6751
5.59985
5.51688
5.4269
5.33071
5.22913
5.12303
5.01324
4.90059
4.78586
4.66981
4.55311
4.43639
4.32022
4.2051
4.09147
3.97971
3.87013
3.76301
3.65855
3.55693
3.45826
3.36263
3.2701
3.18068
3.09439
3.01119
2.93106
2.85393
2.77973
2.70841
2.63985
2.57399
2.51073
2.44996
2.3916
2.33554
2.28168
2.22992
2.18017
2.13234
2.08632
2.04203
1.99937
1.95826
1.91862
1.88037
1.84342
1.8077
1.77314
1.73967
1.70723
1.67574
1.64515
1.6154
1.58643
1.5582
1.53066
1.50375
1.47744
1.45168
1.42644
1.40168
1.37738
1.35349
1.33
1.30687
1.2841
1.26165
1.23952
1.21768
1.19613
1.17486
1.15386
1.13312
1.11264
1.09243
1.07248
1.0528
1.0334
1.01428
0.995469
0.976977
0.958828
0.941047
0.923668
0.906727
0.890264
0.874322
0.858934
0.844115
0.829811
0.816109
0.120603
0.246037
0.316409
0.372457
0.422548
0.469663
0.515299
0.560296
0.60518
0.650317
0.695983
0.742394
0.78972
0.838099
0.887634
0.938405
0.990465
1.04385
1.09857
1.15463
1.21202
1.27071
1.33068
1.3919
1.45433
1.51794
1.58268
1.64852
1.71543
1.78336
1.85228
1.92218
1.99303
2.06484
2.13762
2.21139
2.28624
2.36227
2.43962
2.51852
2.59928
2.68233
2.76828
2.85795
2.9525
3.05354
3.16324
3.28484
3.42219
3.57808
3.74761
3.9271
4.11182
4.29656
4.4763
4.64665
4.80425
4.94687
5.07335
5.18356
5.27811
5.35823
5.42555
5.48189
5.52911
5.56903
5.60329
5.63328
5.66016
5.68482
5.70783
5.72952
5.74995
5.76895
5.78615
5.80104
5.81294
5.82114
5.82485
5.82329
5.81573
5.8015
5.78007
5.751
5.71404
5.66907
5.61614
5.55544
5.4873
5.41217
5.3306
5.24321
5.15067
5.0537
4.953
4.84932
4.74333
4.63572
4.52712
4.4181
4.3092
4.20092
4.09366
3.98782
3.88371
3.78161
3.68175
3.5843
3.48941
3.39719
3.30771
3.22102
3.13714
3.05607
2.97779
2.90226
2.82945
2.75928
2.69171
2.62664
2.564
2.50372
2.4457
2.38986
2.33611
2.28437
2.23453
2.18653
2.14027
2.09567
2.05265
2.01112
1.97101
1.93225
1.89476
1.85847
1.82331
1.78921
1.75613
1.72399
1.69273
1.66231
1.63267
1.60377
1.57554
1.54797
1.52099
1.49457
1.46868
1.44328
1.41835
1.39385
1.36975
1.34604
1.32269
1.29969
1.27701
1.25465
1.23259
1.21082
1.18933
1.16812
1.14719
1.12653
1.10615
1.08605
1.06624
1.04673
1.02753
1.00866
0.990145
0.972001
0.954263
0.936965
0.920142
0.903833
0.888068
0.872862
0.858187
0.844081
0.109008
0.228176
0.297912
0.353636
0.402875
0.448597
0.492358
0.53504
0.57719
0.619185
0.6613
0.703752
0.746718
0.790351
0.834783
0.880129
0.926493
0.973967
1.02263
1.07257
1.12385
1.17654
1.23073
1.28648
1.34387
1.403
1.46394
1.52681
1.59172
1.65877
1.72811
1.79988
1.87425
1.95141
2.03159
2.11502
2.20201
2.29291
2.38814
2.48821
2.59377
2.70563
2.82485
2.95284
3.09146
3.24323
3.41107
3.59944
3.80518
4.01833
4.23272
4.4423
4.64156
4.82599
4.99231
5.13852
5.2639
5.36877
5.45428
5.52222
5.57472
5.61415
5.64287
5.66318
5.67714
5.6866
5.69307
5.69777
5.70161
5.70519
5.70886
5.71269
5.71657
5.7202
5.72315
5.72487
5.72472
5.72203
5.7161
5.70624
5.6918
5.67218
5.64689
5.61552
5.57778
5.5335
5.48263
5.42526
5.36158
5.29188
5.21657
5.13609
5.05097
4.96178
4.8691
4.77353
4.67566
4.57608
4.47533