/*--------------------------------*- C++ -*----------------------------------*\
| =========                 |                                                 |
| \\      /  F ield         | OpenFOAM: The Open Source CFD Toolbox           |
|  \\    /   O peration     | Version:  1.4.2                                 |
|   \\  /    A nd           | Web:      http://www.openfoam.org               |
|    \\/     M anipulation  |                                                 |
\*---------------------------------------------------------------------------*/
FoamFile
{
    version     2.0;
    format      ascii;
    class       volScalarField;
    object      p;
    location    "200";
}
// * * * * * * * * * * * * * * * * * * * * * * * * * * * * * * * * * * * * * //

dimensions      [0 2 -2 0 0 0 0];

internalField   nonuniform List<scalar> 
12225
(
-1.22461
-2.05979
-2.30281
-2.39075
-2.48372
-2.57143
-2.6437
-2.7041
-2.75639
-2.80218
-2.84239
-2.87795
-2.91015
-2.94079
-2.97261
-3.0105
-3.06313
-3.15973
-1.39095
-2.06693
-2.30077
-2.39232
-2.48434
-2.57035
-2.64145
-2.70094
-2.75237
-2.79731
-2.83669
-2.87143
-2.90279
-2.93247
-2.96307
-2.99898
-3.04783
-3.12661
-1.57005
-2.06283
-2.28984
-2.38984
-2.48203
-2.56665
-2.63711
-2.69634
-2.74753
-2.79218
-2.83121
-2.8655
-2.89616
-2.92464
-2.95293
-2.9839
-3.02038
-3.06451
-1.72749
-2.08057
-2.29271
-2.39697
-2.48753
-2.56964
-2.63877
-2.69731
-2.74798
-2.79215
-2.83068
-2.86433
-2.89401
-2.92078
-2.94582
-2.97037
-2.99407
-3.01436
-1.858
-2.11265
-2.30388
-2.40857
-2.49665
-2.57586
-2.64319
-2.70058
-2.75031
-2.79361
-2.83125
-2.86386
-2.89205
-2.91645
-2.93744
-2.95495
-2.96677
-2.96898
-1.97219
-2.15361
-2.32072
-2.42289
-2.50786
-2.58404
-2.64948
-2.70566
-2.75443
-2.79682
-2.83349
-2.8649
-2.89143
-2.91326
-2.93014
-2.9411
-2.9431
-2.93244
-2.07409
-2.20096
-2.34297
-2.43995
-2.52107
-2.5939
-2.65722
-2.71205
-2.75983
-2.80134
-2.83708
-2.86736
-2.89228
-2.91169
-2.9249
-2.93045
-2.92508
-2.90595
-2.15217
-2.24484
-2.3662
-2.45687
-2.53407
-2.60375
-2.66503
-2.71858
-2.76542
-2.80617
-2.84119
-2.87061
-2.89438
-2.91213
-2.92296
-2.92523
-2.91579
-2.89284
-2.21533
-2.28516
-2.38929
-2.47384
-2.54719
-2.61388
-2.6732
-2.72548
-2.77144
-2.81152
-2.84594
-2.87473
-2.8977
-2.91435
-2.92369
-2.92407
-2.91266
-2.8881
-2.27835
-2.32978
-2.41685
-2.49434
-2.56323
-2.62653
-2.68363
-2.73448
-2.7795
-2.81892
-2.85283
-2.88116
-2.9036
-2.9196
-2.92814
-2.9277
-2.91599
-2.89205
-2.34065
-2.37797
-2.44906
-2.51864
-2.58255
-2.64214
-2.69679
-2.7461
-2.79015
-2.82901
-2.86262
-2.89082
-2.91325
-2.92935
-2.9382
-2.93857
-2.92883
-2.90851
-2.4017
-2.42874
-2.48569
-2.54692
-2.6055
-2.66118
-2.71321
-2.76091
-2.80408
-2.84258
-2.87626
-2.90487
-2.92808
-2.94539
-2.95612
-2.95943
-2.9544
-2.94103
-2.46109
-2.48092
-2.5261
-2.57912
-2.63226
-2.68402
-2.73341
-2.77958
-2.82205
-2.86056
-2.89484
-2.92466
-2.94971
-2.9697
-2.98422
-2.99288
-2.99538
-2.992
-2.51829
-2.53324
-2.5692
-2.61476
-2.66273
-2.71082
-2.7578
-2.8027
-2.84486
-2.8839
-2.91954
-2.95155
-2.97976
-3.00406
-3.02437
-3.04072
-3.05319
-3.06189
-2.57242
-2.58418
-2.61343
-2.65284
-2.69637
-2.74139
-2.78649
-2.83063
-2.8731
-2.91342
-2.95133
-2.98667
-3.01942
-3.04963
-3.07749
-3.10327
-3.12712
-3.14854
-2.62194
-2.63176
-2.65661
-2.69166
-2.73196
-2.7749
-2.81901
-2.86324
-2.90685
-2.94936
-2.99055
-3.03032
-3.06875
-3.10603
-3.14247
-3.17841
-3.21374
-3.24717
-2.66417
-2.67305
-2.69566
-2.72846
-2.76726
-2.80958
-2.85398
-2.89943
-2.94522
-2.99091
-3.03626
-3.08127
-3.12603
-3.17075
-3.21579
-3.26142
-3.30713
-3.3509
-2.69227
-2.70117
-2.72381
-2.75687
-2.79636
-2.83988
-2.88604
-2.93387
-2.98267
-3.03203
-3.08172
-3.13173
-3.18213
-3.23315
-3.28504
-3.33795
-3.39117
-3.44231
-2.70193
-2.71173
-2.73648
-2.77211
-2.81422
-2.86041
-2.90937
-2.96018
-3.01217
-3.06493
-3.11827
-3.17215
-3.22659
-3.28172
-3.33772
-3.3947
-3.45195
-3.50728
-2.69549
-2.70709
-2.73587
-2.77593
-2.82199
-2.87175
-2.92403
-2.97797
-3.03298
-3.08869
-3.14491
-3.20154
-3.25858
-3.31607
-3.3741
-3.43269
-3.49129
-3.54813
-2.67571
-2.69039
-2.72544
-2.77162
-2.82261
-2.87648
-2.93234
-2.98943
-3.04722
-3.10542
-3.16388
-3.22252
-3.28129
-3.34013
-3.39903
-3.45789
-3.51627
-3.57282
-2.64424
-2.66405
-2.70823
-2.762
-2.8185
-2.87673
-2.9362
-2.99626
-3.05654
-3.11688
-3.17719
-3.23738
-3.29738
-3.35709
-3.41637
-3.47503
-3.5326
-3.58802
-2.60178
-2.63018
-2.68697
-2.74945
-2.81157
-2.87415
-2.93709
-2.99987
-3.06231
-3.12443
-3.18622
-3.24763
-3.3086
-3.369
-3.42863
-3.48719
-3.54418
-3.59861
-2.54813
-2.59082
-2.66428
-2.73585
-2.80329
-2.87
-2.93611
-3.00121
-3.06543
-3.12896
-3.19192
-3.2543
-3.31608
-3.37714
-3.43726
-3.49611
-3.55317
-3.60739
-2.48246
-2.54826
-2.64256
-2.72262
-2.79463
-2.86507
-2.93391
-3.00089
-3.06647
-3.13107
-3.1949
-3.25802
-3.32044
-3.38211
-3.44286
-3.5024
-3.56027
-3.61538
-2.4033
-2.50512
-2.62355
-2.71035
-2.78593
-2.85961
-2.93068
-2.99904
-3.06557
-3.13089
-3.19529
-3.25892
-3.32184
-3.38407
-3.44552
-3.50602
-3.56525
-3.62222
-2.30738
-2.46525
-2.60861
-2.69911
-2.77727
-2.85373
-2.92657
-2.99593
-3.06312
-3.12897
-3.19381
-3.25784
-3.3212
-3.38396
-3.44616
-3.50779
-3.56876
-3.6283
-2.18328
-2.43457
-2.60039
-2.68984
-2.76943
-2.84832
-2.9226
-2.99268
-3.06035
-3.12657
-3.1917
-3.25599
-3.31962
-3.38276
-3.44556
-3.5082
-3.57083
-3.63306
-2.02254
-2.4239
-2.60748
-2.69077
-2.76992
-2.85016
-2.92509
-2.99534
-3.06307
-3.12932
-3.1945
-3.25884
-3.32258
-3.38591
-3.44911
-3.51255
-3.57677
-3.64228
-1.85969
-2.40736
-2.60743
-2.68802
-2.76774
-2.84935
-2.92504
-2.99568
-3.0637
-3.13023
-3.19567
-3.26027
-3.32428
-3.38791
-3.45147
-3.5155
-3.58086
-3.65183
-3.4173
-3.42565
-3.44109
-3.46692
-3.50721
-3.56371
-3.63747
-3.72933
-3.83967
-3.96857
-4.11579
-4.28091
-4.46332
-4.66225
-4.87687
-5.10625
-5.34942
-5.60539
-5.87316
-6.15172
-6.44008
-6.73727
-7.04232
-7.35429
-7.67221
-7.99515
-8.32216
-8.65227
-8.98448
-9.31777
-9.65106
-9.98321
-10.313
-10.6391
-10.9601
-11.2744
-11.5804
-11.8761
-12.1596
-12.4284
-12.6801
-12.9118
-13.1206
-13.3031
-13.4557
-13.5744
-13.655
-13.6932
-13.6842
-13.6232
-13.5057
-13.3271
-13.083
-12.7679
-12.3771
-11.9079
-11.3591
-10.7306
-10.0239
-9.242
-8.3892
-7.47129
-6.49531
-5.4694
-4.4026
-3.30456
-2.18534
-1.05507
0.0762405
1.199
2.30421
3.38366
4.43008
5.4372
6.39981
7.3138
8.17609
8.98461
9.73825
10.4367
11.0804
11.6705
12.2086
12.6968
13.1378
13.5343
13.8894
14.2061
14.4873
14.737
14.9645
15.1696
15.3464
15.4976
15.6262
15.7349
15.826
15.9016
15.9638
16.0142
16.0544
16.0859
16.1099
16.1276
16.1398
16.1475
16.1514
16.1523
16.1506
16.147
16.1417
16.1352
16.1279
16.12
16.1117
16.1032
16.0947
16.0863
16.0781
16.0703
16.0628
16.0558
16.0493
16.0433
16.0378
16.0329
16.0285
16.0246
16.0214
16.0186
16.0164
16.0148
16.0136
16.0129
16.0127
16.0129
16.0136
16.0146
16.016
16.0178
16.0199
16.0223
16.025
16.0279
16.0311
16.0344
16.0379
16.0416
16.0453
16.0491
16.0529
16.0568
16.0606
16.0643
16.068
16.0715
16.0748
16.0779
16.0808
16.0834
16.0857
16.0876
16.0892
16.0903
16.0911
16.0913
16.0912
16.0907
16.0897
16.0886
16.0873
16.0861
16.0854
16.0856
16.0878
16.0934
16.1058
16.1306
16.1803
16.2644
-3.35883
-3.38431
-3.40575
-3.42608
-3.45751
-3.50538
-3.57142
-3.65638
-3.76055
-3.88386
-4.026
-4.18641
-4.36441
-4.55917
-4.76978
-4.99528
-5.23467
-5.48694
-5.75108
-6.02611
-6.31104
-6.6049
-6.90675
-7.21567
-7.53073
-7.85104
-8.17567
-8.50369
-8.83415
-9.16606
-9.49841
-9.83012
-10.16
-10.4869
-10.8093
-11.1259
-11.435
-11.7349
-12.0236
-12.2991
-12.5588
-12.8003
-13.0206
-13.2166
-13.3849
-13.5217
-13.6231
-13.6848
-13.7023
-13.6709
-13.5861
-13.4436
-13.2384
-12.9644
-12.6167
-12.1927
-11.6906
-11.11
-10.4517
-9.71779
-8.91202
-8.03939
-7.10625
-6.12005
-5.08924
-4.02295
-2.93083
-1.82271
-0.708388
0.402628
1.50133
2.57941
3.62939
4.64475
5.61994
6.55049
7.43291
8.26472
9.04434
9.77104
10.4448
11.0664
11.6371
12.1585
12.6327
13.0621
13.4487
13.7955
14.1076
14.3883
14.638
14.858
15.0503
15.2176
15.3626
15.4875
15.5945
15.6857
15.7629
15.8277
15.8816
15.9261
15.9623
15.9914
16.0144
16.0322
16.0455
16.055
16.0614
16.0651
16.0667
16.0666
16.065
16.0624
16.0589
16.0549
16.0505
16.0458
16.041
16.0363
16.0317
16.0272
16.023
16.0191
16.0156
16.0124
16.0096
16.0072
16.0053
16.0037
16.0026
16.0019
16.0016
16.0017
16.0022
16.0031
16.0043
16.0059
16.0078
16.01
16.0125
16.0152
16.0182
16.0214
16.0248
16.0284
16.0321
16.0359
16.0397
16.0437
16.0476
16.0516
16.0555
16.0593
16.063
16.0666
16.07
16.0732
16.0761
16.0788
16.0811
16.0831
16.0847
16.0859
16.0866
16.087
16.0869
16.0864
16.0855
16.0844
16.0832
16.0821
16.0815
16.0819
16.0842
16.0895
16.1008
16.1239
16.1702
16.2323
-3.30643
-3.35317
-3.39906
-3.43977
-3.48785
-3.54879
-3.62472
-3.71694
-3.82619
-3.95277
-4.09662
-4.25742
-4.43466
-4.62769
-4.83574
-5.058
-5.29359
-5.54163
-5.80123
-6.07148
-6.3515
-6.6404
-6.9373
-7.24134
-7.55168
-7.86744
-8.18776
-8.51175
-8.8385
-9.16705
-9.49643
-9.82558
-10.1534
-10.4787
-10.8002
-11.1164
-11.4259
-11.727
-12.0177
-12.2961
-12.56
-12.8068
-13.0338
-13.238
-13.4161
-13.5646
-13.6796
-13.7569
-13.7923
-13.7811
-13.719
-13.6016
-13.4234
-13.178
-12.8603
-12.4675
-11.9974
-11.4492
-10.8232
-10.1212
-9.3466
-8.50389
-7.59908
-6.63934
-5.63284
-4.58854
-3.51593
-2.42473
-1.32467
-0.225207
0.864667
1.93663
2.98319
3.99777
4.9748
5.90969
6.79886
7.63972
8.43054
9.17044
9.85929
10.4975
11.0861
11.6265
12.1201
12.5691
12.9759
13.3475
13.6861
13.99
14.2619
14.5043
14.7188
14.9079
15.074
15.2192
15.3457
15.4553
15.5499
15.6311
15.7005
15.7594
15.8091
15.8508
15.8854
15.9139
15.9371
15.9557
15.9705
15.982
15.9907
15.9971
16.0015
16.0043
16.0058
16.0063
16.006
16.0051
16.0037
16.0021
16.0003
15.9984
15.9966
15.9948
15.9932
15.9917
15.9905
15.9895
15.9888
15.9884
15.9883
15.9886
15.9891
15.99
15.9912
15.9927
15.9945
15.9965
15.9989
16.0015
16.0043
16.0073
16.0106
16.0141
16.0177
16.0214
16.0253
16.0292
16.0332
16.0373
16.0414
16.0454
16.0494
16.0533
16.0571
16.0607
16.0642
16.0674
16.0704
16.0731
16.0755
16.0775
16.0792
16.0804
16.0812
16.0816
16.0815
16.0811
16.0803
16.0792
16.078
16.0769
16.0763
16.0767
16.0791
16.0845
16.0953
16.1153
16.1527
16.1883
-3.31178
-3.37702
-3.4422
-3.49846
-3.56054
-3.63408
-3.72087
-3.82205
-3.93843
-4.0704
-4.21807
-4.38128
-4.5597
-4.75285
-4.96013
-5.18089
-5.4144
-5.65991
-5.91665
-6.18382
-6.46064
-6.7463
-7.04001
-7.34098
-7.64842
-7.96152
-8.27945
-8.60137
-8.92641
-9.25367
-9.58221
-9.91103
-10.2391
-10.5652
-10.8881
-11.2066
-11.519
-11.8239
-12.1194
-12.4036
-12.6743
-12.9291
-13.1653
-13.38
-13.57
-13.7318
-13.8614
-13.9549
-14.0076
-14.0149
-13.9724
-13.8756
-13.7181
-13.493
-13.195
-12.8209
-12.3682
-11.8357
-11.2236
-10.5336
-9.76872
-8.93364
-8.03436
-7.07818
-6.07347
-5.02942
-3.95574
-2.86242
-1.7594
-0.656337
0.437655
1.51414
2.56555
3.58529
4.56778
5.50845
6.40373
7.25108
8.04884
8.79607
9.49266
10.1389
10.7356
11.284
11.7861
12.2466
12.67
13.0581
13.4097
13.7264
14.0114
14.267
14.4948
14.697
14.876
15.0337
15.1721
15.2933
15.3989
15.4906
15.5699
15.6382
15.6967
15.7466
15.789
15.8247
15.8547
15.8797
15.9003
15.9172
15.9309
15.942
15.9507
15.9574
15.9626
15.9665
15.9692
15.9711
15.9724
15.9731
15.9735
15.9736
15.9736
15.9734
15.9733
15.9732
15.9733
15.9735
15.9738
15.9744
15.9751
15.9761
15.9774
15.9789
15.9806
15.9826
15.9849
15.9874
15.9901
15.9931
15.9962
15.9995
16.003
16.0067
16.0105
16.0144
16.0185
16.0226
16.0267
16.0309
16.035
16.0392
16.0433
16.0473
16.0511
16.0548
16.0584
16.0617
16.0647
16.0675
16.0699
16.072
16.0736
16.0749
16.0758
16.0762
16.0762
16.0757
16.0749
16.0738
16.0725
16.0713
16.0704
16.0705
16.0722
16.0766
16.0853
16.1001
16.1263
16.1396
-3.39807
-3.47423
-3.55064
-3.61626
-3.6875
-3.77006
-3.86526
-3.97392
-4.09662
-4.23367
-4.38515
-4.55096
-4.73085
-4.92446
-5.13132
-5.3509
-5.58262
-5.82585
-6.07993
-6.34417
-6.6179
-6.90039
-7.19095
-7.48886
-7.79337
-8.10375
-8.41923
-8.73902
-9.06232
-9.38828
-9.716
-10.0445
-10.3729
-10.7
-11.0247
-11.3456
-11.6614
-11.9706
-12.2715
-12.5621
-12.8403
-13.104
-13.3504
-13.5766
-13.7796
-13.9557
-14.1011
-14.2116
-14.2824
-14.3089
-14.2861
-14.2093
-14.0716
-13.8648
-13.5834
-13.2234
-12.7822
-12.2583
-11.6517
-10.9641
-10.1985
-9.35988
-8.45453
-7.49015
-6.47557
-5.42048
-4.33508
-3.2298
-2.11491
-1.00036
0.104548
1.19123
2.25208
3.28051
4.27101
5.21906
6.12111
6.97479
7.77856
8.53138
9.23329
9.88438
10.4862
11.0412
11.5549
12.0297
12.4638
12.8594
13.2182
13.5426
13.8353
14.0984
14.334
14.5442
14.7311
14.8967
15.0429
15.1717
15.2846
15.3835
15.4696
15.5444
15.6092
15.665
15.713
15.7541
15.789
15.8187
15.8437
15.8647
15.8823
15.8968
15.9088
15.9187
15.9267
15.9331
15.9383
15.9425
15.9458
15.9484
15.9505
15.9522
15.9536
15.9549
15.956
15.957
15.9581
15.9592
15.9604
15.9617
15.9632
15.9649
15.9667
15.9688
15.971
15.9735
15.9761
15.979
15.982
15.9853
15.9887
15.9923
15.996
15.9999
16.0039
16.008
16.0121
16.0164
16.0206
16.0249
16.0292
16.0334
16.0376
16.0417
16.0456
16.0494
16.053
16.0564
16.0595
16.0623
16.0648
16.0669
16.0687
16.07
16.0709
16.0713
16.0713
16.0708
16.0699
16.0687
16.0673
16.0658
16.0645
16.0639
16.0645
16.067
16.0725
16.0811
16.0964
16.0915
-3.55203
-3.63257
-3.71417
-3.78482
-3.86115
-3.94889
-4.04911
-4.1624
-4.28918
-4.42961
-4.58371
-4.75136
-4.93232
-5.12628
-5.33285
-5.55157
-5.78195
-6.02346
-6.27552
-6.53754
-6.80891
-7.08901
-7.3772
-7.67282
-7.9752
-8.28367
-8.5975
-8.91599
-9.23835
-9.56381
-9.89152
-10.2206
-10.5501
-10.879
-11.2061
-11.5304
-11.8504
-12.1647
-12.4716
-12.7695
-13.0562
-13.3295
-13.5868
-13.8255
-14.0421
-14.2333
-14.3951
-14.5231
-14.6124
-14.658
-14.6547
-14.5972
-14.4777
-14.2871
-14.0188
-13.6686
-13.2334
-12.7115
-12.1027
-11.4089
-10.6334
-9.78156
-8.86019
-7.87769
-6.84362
-5.76843
-4.66302
-3.53836
-2.40519
-1.27372
-0.153502
0.946761
2.01938
3.05782
4.05679
5.01187
5.91947
6.77764
7.585
8.34031
9.04479
9.69916
10.3085
10.8747
11.3963
11.8751
12.3127
12.7117
13.0744
13.4031
13.7002
13.968
14.2085
14.4237
14.6159
14.7868
14.9384
15.0726
15.1908
15.2949
15.3861
15.4659
15.5354
15.5959
15.6482
15.6935
15.7324
15.7658
15.7943
15.8187
15.8393
15.8568
15.8716
15.884
15.8944
15.903
15.9103
15.9163
15.9214
15.9257
15.9293
15.9324
15.9351
15.9375
15.9397
15.9417
15.9437
15.9457
15.9477
15.9497
15.9519
15.9541
15.9565
15.959
15.9617
15.9646
15.9676
15.9708
15.9742
15.9777
15.9814
15.9852
15.9892
15.9933
15.9974
16.0017
16.006
16.0104
16.0148
16.0192
16.0236
16.028
16.0323
16.0364
16.0405
16.0443
16.048
16.0515
16.0547
16.0576
16.0601
16.0623
16.0641
16.0655
16.0664
16.0668
16.0668
16.0662
16.0653
16.0639
16.0622
16.0603
16.0584
16.0569
16.0561
16.0562
16.0579
16.0603
16.0656
16.0458
-3.75149
-3.83101
-3.9131
-3.98542
-4.06354
-4.15311
-4.25519
-4.3703
-4.49878
-4.64069
-4.79599
-4.96447
-5.14589
-5.33992
-5.54618
-5.76425
-5.99368
-6.23399
-6.48465
-6.74515
-7.01492
-7.29341
-7.58004
-7.87422
-8.17532
-8.4827
-8.79572
-9.1137
-9.43592
-9.76165
-10.0901
-10.4204
-10.7518
-11.0831
-11.4135
-11.7417
-12.0665
-12.3866
-12.7003
-13.0059
-13.3016
-13.5851
-13.854
-14.1054
-14.3363
-14.5431
-14.7217
-14.8677
-14.976
-15.041
-15.0572
-15.0189
-14.917
-14.741
-14.4836
-14.1401
-13.707
-13.1823
-12.566
-11.8597
-11.0676
-10.1953
-9.25054
-8.24258
-7.18195
-6.08003
-4.94854
-3.79911
-2.64299
-1.49073
-0.352094
0.764047
1.84981
2.89878
3.90615
4.86746
5.77882
6.63986
7.44981
8.20765
8.91827
9.58108
10.1954
10.7628
11.2848
11.7637
12.2019
12.6017
12.9657
13.296
13.5951
13.8651
14.1082
14.3264
14.5217
14.696
14.8512
14.9891
15.1111
15.2189
15.314
15.3975
15.4707
15.5347
15.5905
15.6391
15.6812
15.7177
15.7492
15.7764
15.7997
15.8197
15.8368
15.8514
15.8639
15.8745
15.8836
15.8914
15.898
15.9038
15.9087
15.9131
15.917
15.9205
15.9237
15.9267
15.9296
15.9323
15.935
15.9378
15.9405
15.9434
15.9463
15.9493
15.9525
15.9557
15.9592
15.9627
15.9664
15.9702
15.9742
15.9782
15.9824
15.9867
15.9911
15.9955
16
16.0046
16.0091
16.0137
16.0182
16.0227
16.0271
16.0313
16.0355
16.0395
16.0432
16.0468
16.0501
16.053
16.0557
16.0579
16.0598
16.0612
16.0621
16.0625
16.0625
16.0619
16.0608
16.0592
16.0572
16.0548
16.0522
16.0495
16.047
16.0446
16.0424
16.0386
16.035
16.0029
-3.97287
-4.04683
-4.12549
-4.19681
-4.27418
-4.3631
-4.46472
-4.57959
-4.70799
-4.84996
-5.00535
-5.1739
-5.35529
-5.54916
-5.75511
-5.97274
-6.20158
-6.44118
-6.69106
-6.95072
-7.21966
-7.49736
-7.78329
-8.07687
-8.37753
-8.68469
-8.99773
-9.31602
-9.6389
-9.96567
-10.2956
-10.6279
-10.9617
-11.2962
-11.6303
-11.963
-12.2931
-12.6193
-12.9401
-13.2539
-13.5588
-13.8526
-14.1332
-14.3976
-14.6428
-14.8652
-15.0608
-15.2248
-15.3521
-15.4365
-15.4723
-15.453
-15.3677
-15.2047
-14.9564
-14.6173
-14.1835
-13.6528
-13.0251
-12.3023
-11.4889
-10.5917
-9.61903
-8.58118
-7.48975
-6.35715
-5.196
-4.01873
-2.83732
-1.66245
-0.504031
0.628668
1.72727
2.78608
3.80163
4.76883
5.68368
6.55052
7.3682
8.13194
8.84471
9.50694
10.1198
10.6853
11.2056
11.6829
12.1198
12.5187
12.8819
13.2119
13.511
13.7815
14.0254
14.2449
14.4418
14.6181
14.7756
14.9158
15.0405
15.151
15.2488
15.3352
15.4112
15.4781
15.5368
15.5881
15.633
15.6721
15.7062
15.7357
15.7614
15.7836
15.8029
15.8195
15.8339
15.8463
15.8571
15.8665
15.8746
15.8818
15.8881
15.8937
15.8987
15.9033
15.9075
15.9114
15.9151
15.9187
15.9221
15.9255
15.9289
15.9323
15.9358
15.9393
15.9429
15.9466
15.9504
15.9544
15.9584
15.9625
15.9668
15.9711
15.9755
15.98
15.9846
15.9893
15.994
15.9987
16.0034
16.0081
16.0128
16.0174
16.0219
16.0263
16.0306
16.0346
16.0385
16.0422
16.0456
16.0486
16.0513
16.0537
16.0556
16.057
16.058
16.0584
16.0583
16.0577
16.0564
16.0546
16.0522
16.0492
16.0458
16.0419
16.0375
16.0325
16.0263
16.0168
16.0053
15.9632
-4.19295
-4.25766
-4.32955
-4.39764
-4.47241
-4.55911
-4.65896
-4.77249
-4.89994
-5.04125
-5.19619
-5.36443
-5.54558
-5.73924
-5.945
-6.16242
-6.39104
-6.63043
-6.8801
-7.13958
-7.40841
-7.68606
-7.97203
-8.26579
-8.56679
-8.87448
-9.18828
-9.50759
-9.83178
-10.1602
-10.4922
-10.8269
-11.1637
-11.5016
-11.8398
-12.1772
-12.5127
-12.8451
-13.1729
-13.4947
-13.8086
-14.1126
-14.4044
-14.6813
-14.9402
-15.1777
-15.3895
-15.571
-15.7165
-15.8198
-15.8746
-15.8734
-15.8031
-15.6508
-15.4093
-15.0726
-14.6362
-14.0974
-13.4561
-12.7147
-11.8782
-10.9543
-9.95238
-8.88329
-7.75984
-6.59573
-5.40462
-4.19989
-2.99426
-1.79739
-0.619313
0.529268
1.6395
2.70833
3.73474
4.71195
5.63533
6.50645
7.32414
8.08752
8.79828
9.45772
10.0676
10.6301
11.1473
11.6219
12.0561
12.4527
12.8139
13.1423
13.4402
13.7099
13.9535
14.173
14.3705
14.5477
14.7064
14.8482
14.9746
15.0872
15.1871
15.2758
15.3542
15.4235
15.4845
15.5383
15.5856
15.627
15.6634
15.6952
15.723
15.7474
15.7686
15.7872
15.8034
15.8176
15.83
15.8409
15.8506
15.8591
15.8667
15.8735
15.8797
15.8854
15.8906
15.8954
15.9
15.9044
15.9086
15.9127
15.9168
15.9208
15.9248
15.9289
15.933
15.9371
15.9414
15.9457
15.9501
15.9545
15.9591
15.9637
15.9684
15.9732
15.978
15.9829
15.9877
15.9926
15.9975
16.0024
16.0073
16.012
16.0167
16.0212
16.0256
16.0298
16.0339
16.0376
16.0411
16.0443
16.0471
16.0495
16.0515
16.053
16.054
16.0545
16.0543
16.0535
16.0521
16.05
16.0471
16.0436
16.0392
16.0339
16.0276
16.0199
16.01
15.9952
15.9769
15.9265
-4.3905
-4.44319
-4.50544
-4.56848
-4.63963
-4.72353
-4.82133
-4.93341
-5.05983
-5.20043
-5.35488
-5.5228
-5.70378
-5.89738
-6.10317
-6.3207
-6.54952
-6.78918
-7.03919
-7.2991
-7.56844
-7.8467
-8.13339
-8.42799
-8.72997
-9.0388
-9.35392
-9.67475
-10.0007
-10.3311
-10.6654
-11.0028
-11.3426
-11.6841
-12.0262
-12.3681
-12.7088
-13.047
-13.3813
-13.7104
-14.0325
-14.3457
-14.6476
-14.9358
-15.2071
-15.4581
-15.6846
-15.8818
-16.0437
-16.1641
-16.2363
-16.2512
-16.1926
-16.0476
-15.81
-15.4732
-15.032
-14.4836
-13.8279
-13.0677
-12.2087
-11.2595
-10.2305
-9.13223
-7.97905
-6.7865
-5.56919
-4.34122
-3.11583
-1.89991
-0.702443
0.462897
1.58816
2.6691
3.70241
4.68369
5.61031
6.4819
7.29812
8.05941
8.76717
9.42302
10.029
10.5874
11.1007
11.5715
12.0022
12.3956
12.7541
13.0801
13.3761
13.6442
13.8868
14.1057
14.3031
14.4806
14.6399
14.7827
14.9105
15.0246
15.1263
15.2169
15.2973
15.3687
15.432
15.488
15.5375
15.5812
15.6197
15.6537
15.6836
15.71
15.7332
15.7536
15.7717
15.7876
15.8017
15.8142
15.8254
15.8353
15.8443
15.8524
15.8597
15.8665
15.8727
15.8786
15.8841
15.8893
15.8943
15.8992
15.904
15.9086
15.9133
15.9179
15.9225
15.9271
15.9318
15.9366
15.9413
15.9462
15.9511
15.956
15.961
15.966
15.9711
15.9762
15.9813
15.9865
15.9916
15.9966
16.0016
16.0066
16.0114
16.0161
16.0207
16.025
16.0292
16.0331
16.0367
16.04
16.0429
16.0454
16.0475
16.0491
16.0501
16.0505
16.0504
16.0495
16.0479
16.0454
16.0421
16.0379
16.0325
16.0259
16.0177
16.0073
15.9938
15.9743
15.9501
15.8929
-4.54759
-4.58639
-4.6367
-4.69358
-4.76118
-4.84278
-4.93911
-5.05023
-5.176
-5.31617
-5.47037
-5.6382
-5.81925
-6.01308
-6.21925
-6.4373
-6.66678
-6.90721
-7.15813
-7.41905
-7.68949
-7.96895
-8.25693
-8.55291
-8.85638
-9.1668
-9.48362
-9.80628
-10.1342
-10.4668
-10.8034
-11.1434
-11.486
-11.8306
-12.1763
-12.5221
-12.8671
-13.2102
-13.55
-13.8851
-14.214
-14.5347
-14.845
-15.1423
-15.4238
-15.6858
-15.9244
-16.1344
-16.3099
-16.4444
-16.5312
-16.557
-16.5039
-16.3608
-16.1222
-15.7815
-15.333
-14.7737
-14.1038
-13.3266
-12.4486
-11.4794
-10.4306
-9.31247
-8.13729
-6.92265
-5.68429
-4.43607
-3.19078
-1.95884
-0.74982
0.425869
1.56053
2.64857
3.6858
4.66895
5.59609
6.46658
7.28046
8.03856
8.74242
9.39392
9.99533
10.5491
11.0579
11.5243
11.9511
12.3409
12.6962
13.0196
13.3133
13.5798
13.821
14.0391
14.236
14.4135
14.5733
14.7169
14.8457
14.9612
15.0645
15.1568
15.2391
15.3126
15.3779
15.436
15.4877
15.5336
15.5743
15.6104
15.6424
15.6708
15.6961
15.7184
15.7384
15.7561
15.7719
15.786
15.7987
15.8101
15.8205
15.8299
15.8385
15.8464
15.8538
15.8607
15.8671
15.8733
15.8792
15.8849
15.8904
15.8957
15.901
15.9062
15.9114
15.9166
15.9218
15.927
15.9322
15.9374
15.9427
15.948
15.9533
15.9586
15.964
15.9694
15.9747
15.9801
15.9854
15.9907
15.9959
16.001
16.0061
16.0109
16.0156
16.0202
16.0245
16.0285
16.0323
16.0357
16.0387
16.0414
16.0435
16.0452
16.0463
16.0467
16.0465
16.0455
16.0437
16.0409
16.0372
16.0322
16.0259
16.0178
16.0077
15.9948
15.978
15.9542
15.9248
15.862
-4.65014
-4.67383
-4.71082
-4.76159
-4.82686
-4.90734
-5.00305
-5.11381
-5.23941
-5.37955
-5.53388
-5.70202
-5.88356
-6.07809
-6.28515
-6.50426
-6.73496
-6.97677
-7.22919
-7.49173
-7.76386
-8.04508
-8.33487
-8.63268
-8.93801
-9.25031
-9.56902
-9.8936
-10.2235
-10.558
-10.8967
-11.2389
-11.5838
-11.9309
-12.2792
-12.6278
-12.976
-13.3225
-13.6661
-14.0055
-14.3389
-14.6647
-14.9806
-15.2841
-15.5724
-15.8418
-16.0883
-16.3068
-16.4913
-16.6359
-16.7326
-16.7603
-16.7037
-16.5593
-16.3187
-15.9732
-15.5173
-14.9484
-14.2667
-13.476
-12.5833
-11.5983
-10.533
-9.40053
-8.21324
-6.98668
-5.73636
-4.47664
-3.22067
-1.98012
-0.765301
0.414631
1.55224
2.64179
3.67904
4.66097
5.58587
6.45321
7.26323
8.01697
8.71609
9.36267
9.95911
10.508
11.0121
11.4742
11.897
12.2832
12.6354
12.9561
13.2477
13.5125
13.7526
13.97
14.1666
14.3441
14.5043
14.6486
14.7785
14.8953
15.0002
15.0942
15.1785
15.2539
15.3214
15.3817
15.4356
15.4837
15.5266
15.5649
15.5991
15.6296
15.6569
15.6813
15.7031
15.7227
15.7403
15.7561
15.7704
15.7834
15.7952
15.806
15.816
15.8251
15.8337
15.8416
15.8492
15.8563
15.8631
15.8696
15.8759
15.8821
15.8881
15.8939
15.8997
15.9055
15.9112
15.9169
15.9226
15.9282
15.9339
15.9396
15.9452
15.9509
15.9566
15.9623
15.9679
15.9735
15.9791
15.9846
15.9901
15.9954
16.0006
16.0057
16.0106
16.0153
16.0197
16.024
16.0279
16.0314
16.0346
16.0374
16.0396
16.0414
16.0425
16.043
16.0427
16.0417
16.0396
16.0366
16.0323
16.0266
16.0193
16.0099
15.998
15.9825
15.9627
15.9351
15.9012
15.8339
-4.68731
-4.69645
-4.72063
-4.76595
-4.8298
-4.90991
-5.00558
-5.11658
-5.24261
-5.38337
-5.53852
-5.7077
-5.89051
-6.08651
-6.29526
-6.51626
-6.74901
-6.99301
-7.24774
-7.51264
-7.78716
-8.07077
-8.3629
-8.66302
-8.97057
-9.285
-9.60575
-9.93226
-10.264
-10.6003
-10.9407
-11.2845
-11.6311
-11.9798
-12.3298
-12.6802
-13.0302
-13.3787
-13.7245
-14.0662
-14.4023
-14.7309
-15.0499
-15.3569
-15.6489
-15.9224
-16.1733
-16.3965
-16.5863
-16.7372
-16.8368
-16.8591
-16.7927
-16.64
-16.3912
-16.0365
-15.5703
-14.9902
-14.2971
-13.4953
-12.5921
-11.5973
-10.5232
-9.38307
-8.19104
-6.96193
-5.71057
-4.45104
-3.19633
-1.95808
-0.746562
0.429372
1.56246
2.64707
3.67903
4.65544
5.57467
6.43623
7.24046
7.98846
8.68196
9.32309
9.91434
10.4584
10.9579
11.4159
11.835
12.218
12.5674
12.8859
13.1758
13.4393
13.6786
13.8956
14.0922
14.2701
14.4309
14.5762
14.7074
14.8257
14.9322
15.0282
15.1145
15.192
15.2617
15.3243
15.3805
15.4309
15.4761
15.5167
15.5532
15.586
15.6154
15.6419
15.6657
15.6873
15.7067
15.7244
15.7404
15.755
15.7684
15.7807
15.792
15.8025
15.8123
15.8215
15.8301
15.8383
15.8461
15.8535
15.8607
15.8676
15.8744
15.881
15.8874
15.8938
15.9001
15.9063
15.9125
15.9186
15.9248
15.9308
15.9369
15.9429
15.949
15.955
15.9609
15.9668
15.9726
15.9784
15.9841
15.9897
15.9951
16.0004
16.0055
16.0104
16.015
16.0194
16.0235
16.0272
16.0306
16.0335
16.0358
16.0377
16.0389
16.0394
16.0391
16.038
16.0358
16.0324
16.0276
16.0213
16.013
16.0023
15.9886
15.9709
15.9481
15.9171
15.8794
15.8083
-4.65337
-4.65049
-4.66452
-4.70505
-4.76704
-4.84648
-4.94226
-5.0539
-5.181
-5.32317
-5.48005
-5.65125
-5.83637
-6.03496
-6.24651
-6.47053
-6.70647
-6.95378
-7.21185
-7.48011
-7.75795
-8.04478
-8.34
-8.64302
-8.95327
-9.27016
-9.59314
-9.92165
-10.2551
-10.593
-10.9348
-11.2798
-11.6274
-11.9769
-12.3277
-12.6788
-13.0295
-13.3786
-13.725
-14.0674
-14.4042
-14.7335
-15.0535
-15.3614
-15.6546
-15.9293
-16.1815
-16.4064
-16.5992
-16.7519
-16.8398
-16.8435
-16.7627
-16.5939
-16.3277
-15.956
-15.4737
-14.8794
-14.1745
-13.3638
-12.4549
-11.4579
-10.3846
-9.24826
-8.06293
-6.84293
-5.60247
-4.35512
-3.11341
-1.88862
-0.690665
0.471938
1.59219
2.66459
3.68506
4.6508
5.56021
6.41275
7.20874
7.94927
8.63599
9.27102
9.8568
10.396
10.8913
11.3455
11.7614
12.1418
12.4891
12.806
13.0948
13.3576
13.5966
13.8138
14.0109
14.1896
14.3516
14.4982
14.631
14.7511
14.8596
14.9577
15.0462
15.1262
15.1983
15.2633
15.322
15.3749
15.4226
15.4657
15.5045
15.5396
15.5714
15.6001
15.6261
15.6497
15.6712
15.6907
15.7086
15.7249
15.74
15.7538
15.7666
15.7786
15.7897
15.8001
15.8099
15.8192
15.8281
15.8365
15.8446
15.8524
15.86
15.8674
15.8745
15.8816
15.8885
15.8953
15.902
15.9087
15.9153
15.9218
15.9283
15.9347
15.9411
15.9474
15.9537
15.9599
15.9661
15.9721
15.9781
15.9839
15.9895
15.995
16.0004
16.0055
16.0103
16.0149
16.0192
16.0231
16.0266
16.0296
16.0322
16.0341
16.0354
16.036
16.0357
16.0345
16.0321
16.0284
16.0233
16.0162
16.007
15.9951
15.9797
15.9599
15.9344
15.9005
15.8595
15.7853
-4.55144
-4.53937
-4.54623
-4.58281
-4.64246
-4.72069
-4.81628
-4.92856
-5.05694
-5.20097
-5.36023
-5.53429
-5.72269
-5.92493
-6.14047
-6.36873
-6.60909
-6.86091
-7.1235
-7.3962
-7.67833
-7.96922
-8.26822
-8.57469
-8.88802
-9.20761
-9.5329
-9.86332
-10.1984
-10.5374
-10.88
-11.2255
-11.5734
-11.9229
-12.2735
-12.6242
-12.9743
-13.3226
-13.6681
-14.0094
-14.345
-14.6731
-14.9916
-15.298
-15.5895
-15.8624
-16.1127
-16.3364
-16.5271
-16.6656
-16.7266
-16.704
-16.6004
-16.4077
-16.1175
-15.7235
-15.222
-14.6126
-13.8974
-13.0815
-12.1728
-11.181
-10.1176
-8.99547
-7.82786
-6.62842
-5.41054
-4.18702
-2.96971
-1.76927
-0.59511
0.544723
1.64357
2.69615
3.69853
4.64797
5.54286
6.3826
7.16742
7.89827
8.57668
9.20463
9.78442
10.3186
10.8097
11.2606
11.6739
12.0522
12.3982
12.7141
13.0025
13.2654
13.5048
13.7228
13.921
14.1012
14.2648
14.4134
14.5482
14.6705
14.7814
14.882
14.9731
15.0557
15.1305
15.1982
15.2596
15.3152
15.3656
15.4113
15.4528
15.4904
15.5246
15.5557
15.584
15.6098
15.6334
15.655
15.6748
15.6931
15.7099
15.7254
15.7398
15.7533
15.7658
15.7776
15.7887
15.7992
15.8091
15.8186
15.8278
15.8365
15.8449
15.8531
15.8611
15.8688
15.8764
15.8839
15.8912
15.8984
15.9055
15.9125
15.9194
15.9263
15.9331
15.9398
15.9464
15.9529
15.9594
15.9657
15.972
15.978
15.984
15.9897
15.9953
16.0006
16.0057
16.0105
16.015
16.0191
16.0228
16.026
16.0287
16.0308
16.0322
16.0328
16.0326
16.0312
16.0287
16.0248
16.0192
16.0116
16.0015
15.9884
15.9715
15.9497
15.9219
15.8853
15.8414
15.7648
-4.39227
-4.37351
-4.3756
-4.40907
-4.46623
-4.54279
-4.63766
-4.75012
-4.87951
-5.02535
-5.18718
-5.36453
-5.55688
-5.76365
-5.98419
-6.21779
-6.4637
-6.72114
-6.98931
-7.2674
-7.55463
-7.85024
-8.15351
-8.46373
-8.78028
-9.10252
-9.4299
-9.76187
-10.0979
-10.4375
-10.7802
-11.1254
-11.4726
-11.821
-12.1702
-12.5192
-12.8672
-13.2133
-13.5561
-13.8945
-14.2269
-14.5514
-14.8661
-15.1682
-15.455
-15.723
-15.9694
-16.1882
-16.3608
-16.461
-16.4825
-16.4291
-16.2948
-16.0717
-15.753
-15.3344
-14.8135
-14.1907
-13.4688
-12.6531
-11.7512
-10.7726
-9.72815
-8.62986
-7.49022
-6.32187
-5.13723
-3.94816
-2.76562
-1.59951
-0.458571
0.649678
1.719
2.74441
3.72214
4.64955
5.52502
6.34786
7.11816
7.8367
8.50481
9.12425
9.69713
10.2258
10.7126
11.1603
11.5712
11.948
12.2931
12.6089
12.8975
13.1611
13.4017
13.6212
13.8212
14.0034
14.1694
14.3204
14.4578
14.5829
14.6966
14.8001
14.8942
14.9798
15.0577
15.1285
15.1929
15.2515
15.3048
15.3534
15.3977
15.4381
15.4749
15.5086
15.5394
15.5676
15.5935
15.6173
15.6392
15.6594
15.6781
15.6954
15.7116
15.7266
15.7407
15.7539
15.7664
15.7782
15.7893
15.8
15.8101
15.8199
15.8293
15.8383
15.8471
15.8556
15.8639
15.8721
15.88
15.8878
15.8954
15.903
15.9104
15.9177
15.9249
15.932
15.939
15.9459
15.9527
15.9593
15.9659
15.9722
15.9784
15.9844
15.9902
15.9958
16.0011
16.0062
16.0109
16.0152
16.0191
16.0225
16.0254
16.0276
16.0292
16.0299
16.0297
16.0284
16.0258
16.0216
16.0156
16.0075
15.9966
15.9825
15.9642
15.9407
15.9107
15.8716
15.8252
15.7468
-4.19159
-4.16754
-4.16553
-4.19545
-4.24912
-4.3228
-4.41572
-4.52725
-4.65685
-4.80404
-4.96836
-5.1493
-5.34623
-5.55845
-5.78511
-6.02531
-6.27807
-6.5424
-6.81729
-7.10178
-7.39493
-7.69586
-8.00375
-8.31785
-8.63749
-8.96206
-9.29102
-9.62387
-9.96011
-10.2993
-10.6409
-10.9846
-11.3296
-11.6756
-12.0217
-12.3673
-12.7114
-13.053
-13.391
-13.724
-14.0504
-14.3685
-14.676
-14.9706
-15.25
-15.5106
-15.7487
-15.9413
-16.0623
-16.1129
-16.0956
-16.0053
-15.8351
-15.5787
-15.2311