/*--------------------------------*- C++ -*----------------------------------*\
| =========                 |                                                 |
| \\      /  F ield         | OpenFOAM: The Open Source CFD Toolbox           |
|  \\    /   O peration     | Version:  1.4.2                                 |
|   \\  /    A nd           | Web:      http://www.openfoam.org               |
|    \\/     M anipulation  |                                                 |
\*---------------------------------------------------------------------------*/
FoamFile
{
    version     2.0;
    format      ascii;
    class       surfaceScalarField;
    object      phi;
    location    "200";
}
// * * * * * * * * * * * * * * * * * * * * * * * * * * * * * * * * * * * * * //

dimensions      [0 3 -1 0 0 0 0];

internalField   nonuniform List<scalar> 
24170
(
3.03909e-06
9.48057e-08
2.96629e-06
7.28009e-08
2.90135e-06
6.49401e-08
2.83968e-06
6.16686e-08
2.78135e-06
5.83289e-08
2.72659e-06
5.47621e-08
2.67531e-06
5.12781e-08
2.62735e-06
4.79604e-08
2.58255e-06
4.48009e-08
2.54076e-06
4.17898e-08
2.50183e-06
3.89227e-08
2.46565e-06
3.61839e-08
2.43211e-06
3.3542e-08
2.40116e-06
3.09493e-08
2.37286e-06
2.8303e-08
2.34748e-06
2.53705e-08
2.32581e-06
2.16716e-08
1.07122e-08
2.3151e-06
3.46189e-06
8.93621e-08
3.45353e-06
8.11596e-08
3.44373e-06
7.47433e-08
3.43261e-06
7.27854e-08
3.42043e-06
7.05074e-08
3.40758e-06
6.76138e-08
3.39427e-06
6.45881e-08
3.38063e-06
6.15959e-08
3.36678e-06
5.865e-08
3.35282e-06
5.57501e-08
3.33885e-06
5.28945e-08
3.32497e-06
5.0063e-08
3.31131e-06
4.72042e-08
3.29804e-06
4.42209e-08
3.28543e-06
4.09118e-08
3.27395e-06
3.68481e-08
3.26463e-06
3.09924e-08
2.03911e-08
3.25495e-06
3.82421e-06
7.73507e-08
3.82593e-06
7.94331e-08
3.82485e-06
7.58214e-08
3.82279e-06
7.48484e-08
3.81997e-06
7.33318e-08
3.81655e-06
7.10339e-08
3.81267e-06
6.84639e-08
3.80843e-06
6.58383e-08
3.80388e-06
6.32006e-08
3.79907e-06
6.05624e-08
3.79404e-06
5.79221e-08
3.78885e-06
5.5253e-08
3.78356e-06
5.24889e-08
3.77828e-06
4.95007e-08
3.77314e-06
4.6049e-08
3.7683e-06
4.16931e-08
3.76365e-06
3.5644e-08
2.66518e-08
3.75739e-06
4.21675e-06
6.51557e-08
4.22169e-06
7.44925e-08
4.22345e-06
7.40614e-08
4.22415e-06
7.41492e-08
4.22417e-06
7.33207e-08
4.22362e-06
7.15813e-08
4.22264e-06
6.94428e-08
4.22132e-06
6.71556e-08
4.21972e-06
6.47981e-08
4.21789e-06
6.23985e-08
4.21585e-06
5.99606e-08
4.21364e-06
5.74583e-08
4.21131e-06
5.48221e-08
4.20889e-06
5.19192e-08
4.20642e-06
4.85238e-08
4.20383e-06
4.42768e-08
4.20079e-06
3.86836e-08
3.13096e-08
4.19613e-06
4.64853e-06
5.39282e-08
4.65496e-06
6.80633e-08
4.65836e-06
7.06617e-08
4.66054e-06
7.19716e-08
4.66197e-06
7.18953e-08
4.66281e-06
7.07426e-08
4.66319e-06
6.90641e-08
4.6632e-06
6.71437e-08
4.6629e-06
6.50928e-08
4.66234e-06
6.29588e-08
4.66155e-06
6.07555e-08
4.66054e-06
5.84632e-08
4.65935e-06
5.60191e-08
4.65796e-06
5.33082e-08
4.65633e-06
5.01471e-08
4.65433e-06
4.62806e-08
4.65157e-06
4.14422e-08
3.55809e-08
4.6473e-06
5.12438e-06
4.4145e-08
5.13147e-06
6.09734e-08
5.13602e-06
6.61068e-08
5.13934e-06
6.86578e-08
5.1418e-06
6.9434e-08
5.14359e-06
6.89507e-08
5.14486e-06
6.77941e-08
5.14572e-06
6.62891e-08
5.14622e-06
6.45895e-08
5.14641e-06
6.2768e-08
5.14631e-06
6.0853e-08
5.14594e-06
5.88353e-08
5.14529e-06
5.66686e-08
5.14434e-06
5.4265e-08
5.14298e-06
5.14974e-08
5.14106e-06
4.82077e-08
5.13821e-06
4.42877e-08
3.98676e-08
5.13392e-06
5.6492e-06
3.59557e-08
5.65639e-06
5.37755e-08
5.6617e-06
6.0806e-08
5.66589e-06
6.44667e-08
5.66922e-06
6.6099e-08
5.67184e-06
6.6334e-08
5.67387e-06
6.5767e-08
5.67541e-06
6.47508e-08
5.67652e-06
6.34711e-08
5.67727e-06
6.20253e-08
5.67766e-06
6.04609e-08
5.6777e-06
5.87885e-08
5.67739e-06
5.69867e-08
5.67665e-06
5.50023e-08
5.67538e-06
5.27636e-08
5.67339e-06
5.01982e-08
5.67037e-06
4.73087e-08
4.43215e-08
5.66592e-06
4.41106e-06
3.10086e-08
4.41607e-06
4.87626e-08
4.42015e-06
5.67229e-08
4.42353e-06
6.10929e-08
4.42633e-06
6.32932e-08
4.42864e-06
6.40303e-08
4.4305e-06
6.3901e-08
4.43199e-06
6.32654e-08
4.43314e-06
6.2324e-08
4.43397e-06
6.11901e-08
4.43451e-06
5.99238e-08
4.43475e-06
5.85499e-08
4.43467e-06
5.70652e-08
4.43423e-06
5.54452e-08
4.43334e-06
5.36577e-08
4.43185e-06
5.16854e-08
4.42956e-06
4.95967e-08
4.76386e-08
4.42624e-06
5.14443e-06
2.64322e-08
5.14958e-06
4.36139e-08
5.15409e-06
5.22188e-08
5.15799e-06
5.71862e-08
5.16135e-06
5.99319e-08
5.1642e-06
6.11829e-08
5.16658e-06
6.1521e-08
5.16854e-06
6.13077e-08
5.17011e-06
6.07548e-08
5.17131e-06
5.99888e-08
5.17215e-06
5.90834e-08
5.17262e-06
5.80787e-08
5.17269e-06
5.69903e-08
5.17232e-06
5.58228e-08
5.17139e-06
5.45824e-08
5.16977e-06
5.3304e-08
5.16726e-06
5.21097e-08
5.1272e-08
5.16363e-06
5.99992e-06
2.23034e-08
6.00507e-06
3.84625e-08
6.00989e-06
4.74018e-08
6.01427e-06
5.28099e-08
6.01816e-06
5.60366e-08
6.02156e-06
5.77836e-08
6.02449e-06
5.85974e-08
6.02696e-06
5.88335e-08
6.02901e-06
5.87086e-08
6.03063e-06
5.8361e-08
6.03184e-06
5.78756e-08
6.03261e-06
5.73089e-08
6.03291e-06
5.66959e-08
6.03266e-06
5.6068e-08
6.03178e-06
5.5465e-08
6.03012e-06
5.49628e-08
6.02751e-06
5.47232e-08
5.50436e-08
6.02374e-06
6.99791e-06
1.86577e-08
7.00294e-06
3.34329e-08
7.00796e-06
4.23799e-08
7.01272e-06
4.80496e-08
7.0171e-06
5.16565e-08
7.02104e-06
5.38496e-08
7.02451e-06
5.51228e-08
7.02753e-06
5.58154e-08
7.0301e-06
5.61428e-08
7.03221e-06
5.62505e-08
7.03385e-06
5.62341e-08
7.03499e-06
5.61631e-08
7.0356e-06
5.60917e-08
7.0356e-06
5.60721e-08
7.03489e-06
5.61696e-08
7.03337e-06
5.64866e-08
7.03089e-06
5.72071e-08
5.86396e-08
7.02729e-06
8.16219e-06
1.54781e-08
8.16701e-06
2.86212e-08
8.17213e-06
3.72528e-08
8.17719e-06
4.29903e-08
8.182e-06
4.68503e-08
8.18644e-06
4.94103e-08
8.19046e-06
5.11017e-08
8.19404e-06
5.2235e-08
8.19716e-06
5.30199e-08
8.19981e-06
5.36005e-08
8.20196e-06
5.4082e-08
8.20359e-06
5.45417e-08
8.20463e-06
5.50483e-08
8.20503e-06
5.56671e-08
8.20472e-06
5.64773e-08
8.20362e-06
5.75916e-08
8.20162e-06
5.92003e-08
6.16006e-08
8.19866e-06
9.5205e-06
1.27035e-08
9.52505e-06
2.40752e-08
9.53021e-06
3.20929e-08
9.53551e-06
3.76936e-08
9.5407e-06
4.1661e-08
9.54562e-06
4.44843e-08
9.5502e-06
4.65283e-08
9.55437e-06
4.80636e-08
9.5581e-06
4.92857e-08
9.56137e-06
5.03319e-08
9.56414e-06
5.1309e-08
9.56639e-06
5.22989e-08
9.56806e-06
5.33742e-08
9.56912e-06
5.46042e-08
9.56953e-06
5.60691e-08
9.56924e-06
5.78785e-08
9.56823e-06
6.02135e-08
6.33349e-08
9.5665e-06
1.11052e-05
1.02426e-08
1.11095e-05
1.97798e-08
1.11146e-05
2.6923e-08
1.11202e-05
3.21746e-08
1.11257e-05
3.60871e-08
1.11312e-05
3.90486e-08
1.11363e-05
4.13529e-08
1.11412e-05
4.32249e-08
1.11456e-05
4.48342e-08
1.11497e-05
4.63062e-08
1.11532e-05
4.77376e-08
1.11563e-05
4.9208e-08
1.11589e-05
5.07841e-08
1.1161e-05
5.25286e-08
1.11625e-05
5.451e-08
1.11636e-05
5.68255e-08
1.11642e-05
5.96384e-08
6.31601e-08
1.11643e-05
1.29539e-05
7.98394e-09
1.2958e-05
1.56486e-08
1.29632e-05
2.16929e-08
1.2969e-05
2.63759e-08
1.29751e-05
3.00518e-08
1.29811e-05
3.30027e-08
1.2987e-05
3.54466e-08
1.29927e-05
3.75579e-08
1.29981e-05
3.94687e-08
1.30031e-05
4.1284e-08
1.30077e-05
4.30816e-08
1.3012e-05
4.49267e-08
1.30159e-05
4.68716e-08
1.30195e-05
4.89639e-08
1.30228e-05
5.12556e-08
1.30258e-05
5.38261e-08
1.30286e-05
5.68195e-08
6.03997e-08
1.30313e-05
1.51106e-05
5.79514e-09
1.51148e-05
1.15138e-08
1.51202e-05
1.62485e-08
1.51265e-05
2.01352e-08
1.51331e-05
2.33728e-08
1.514e-05
2.61379e-08
1.51469e-05
2.85701e-08
1.51537e-05
3.07858e-08
1.51602e-05
3.28728e-08
1.51666e-05
3.49026e-08
1.51728e-05
3.69284e-08
1.51787e-05
3.89919e-08
1.51845e-05
4.11244e-08
1.51901e-05
4.3353e-08
1.51956e-05
4.5711e-08
1.52012e-05
4.82626e-08
1.52069e-05
5.11386e-08
5.44706e-08
1.52128e-05
1.76267e-05
3.50707e-09
1.76311e-05
7.09826e-09
1.76371e-05
1.02831e-08
1.76441e-05
1.31284e-08
1.76518e-05
1.57081e-08
1.76598e-05
1.80913e-08
1.76681e-05
2.03358e-08
1.76764e-05
2.24907e-08
1.76846e-05
2.45956e-08
1.76929e-05
2.66785e-08
1.7701e-05
2.87618e-08
1.77092e-05
3.08586e-08
1.77173e-05
3.2978e-08
1.77255e-05
3.51275e-08
1.77339e-05
3.7322e-08
1.77426e-05
3.96114e-08
1.77516e-05
4.21181e-08
4.49749e-08
1.77611e-05
1.78285e-05
1.20797e-09
1.7833e-05
2.62578e-09
1.78391e-05
4.189e-09
1.78463e-05
5.90358e-09
1.78543e-05
7.72344e-09
1.78627e-05
9.61311e-09
1.78715e-05
1.15516e-08
1.78805e-05
1.35214e-08
1.78896e-05
1.55129e-08
1.78988e-05
1.75156e-08
1.7908e-05
1.95217e-08
1.79173e-05
2.15197e-08
1.79268e-05
2.34975e-08
1.79365e-05
2.54447e-08
1.79465e-05
2.73623e-08
1.79568e-05
2.92871e-08
1.79676e-05
3.13323e-08
3.36564e-08
1.79789e-05
1.58836e-05
-1.04093e-09
1.58879e-05
-1.71419e-09
1.58938e-05
-1.66285e-09
1.59007e-05
-9.82639e-10
1.59082e-05
1.39248e-10
1.59163e-05
1.56218e-09
1.59247e-05
3.19332e-09
1.59332e-05
4.96067e-09
1.59419e-05
6.81052e-09
1.59507e-05
8.70181e-09
1.59597e-05
1.05998e-08
1.59687e-05
1.24755e-08
1.59779e-05
1.43033e-08
1.59873e-05
1.6061e-08
1.59969e-05
1.77381e-08
1.60068e-05
1.93558e-08
1.60172e-05
2.10097e-08
2.28739e-08
1.60279e-05
1.4151e-05
-3.41637e-09
1.41555e-05
-6.17931e-09
1.41613e-05
-7.51179e-09
1.41681e-05
-7.72319e-09
1.41754e-05
-7.18577e-09
1.41831e-05
-6.14253e-09
1.41911e-05
-4.75804e-09
1.41992e-05
-3.15283e-09
1.42074e-05
-1.41869e-09
1.42157e-05
3.80899e-10
1.42241e-05
2.19591e-09
1.42326e-05
3.98684e-09
1.42412e-05
5.71881e-09
1.42499e-05
7.36155e-09
1.42588e-05
8.89486e-09
1.42678e-05
1.03246e-08
1.42771e-05
1.17202e-08
1.3243e-08
1.42867e-05
1.26077e-05
-6.08609e-09
1.26125e-05
-1.09675e-08
1.26185e-05
-1.35001e-08
1.26252e-05
-1.44045e-08
1.26323e-05
-1.43004e-08
1.26397e-05
-1.35225e-08
1.26472e-05
-1.22958e-08
1.26548e-05
-1.07863e-08
1.26625e-05
-9.11054e-09
1.26702e-05
-7.35043e-09
1.2678e-05
-5.56612e-09
1.26858e-05
-3.80382e-09
1.26936e-05
-2.10181e-09
1.27015e-05
-4.91534e-10
1.27094e-05
1.00395e-09
1.27173e-05
2.37933e-09
1.27253e-05
3.67652e-09
5.01908e-09
1.27336e-05
1.1233e-05
-9.25517e-09
1.12383e-05
-1.62465e-08
1.12444e-05
-1.96988e-08
1.12511e-05
-2.10524e-08
1.1258e-05
-2.11975e-08
1.1265e-05
-2.05407e-08
1.12721e-05
-1.9358e-08
1.12791e-05
-1.78576e-08
1.12862e-05
-1.61758e-08
1.12933e-05
-1.4404e-08
1.13003e-05
-1.26043e-08
1.13073e-05
-1.08226e-08
1.13143e-05
-9.09429e-09
1.13213e-05
-7.44738e-09
1.13282e-05
-5.90303e-09
1.1335e-05
-4.47043e-09
1.13418e-05
-3.12731e-09
-1.79394e-09
1.13486e-05
1.00085e-05
-1.31891e-08
1.00144e-05
-2.21511e-08
1.00208e-05
-2.60831e-08
1.00274e-05
-2.75835e-08
1.00339e-05
-2.77692e-08
1.00405e-05
-2.70746e-08
1.00469e-05
-2.58245e-08
1.00533e-05
-2.42556e-08
1.00597e-05
-2.25129e-08
1.0066e-05
-2.06866e-08
1.00722e-05
-1.88355e-08
1.00784e-05
-1.70016e-08
1.00845e-05
-1.52142e-08
1.00905e-05
-1.34934e-08
1.00965e-05
-1.18527e-08
1.01023e-05
-1.02968e-08
1.0108e-05
-8.81153e-09
-7.35251e-09
1.01136e-05
8.91811e-06
-1.81923e-08
8.92466e-06
-2.87025e-08
8.93109e-06
-3.25099e-08
8.93733e-06
-3.38191e-08
8.9434e-06
-3.38368e-08
8.94929e-06
-3.29578e-08
8.955e-06
-3.1543e-08
8.96059e-06
-2.98421e-08
8.96607e-06
-2.79968e-08
8.97147e-06
-2.6089e-08
8.97681e-06
-2.41712e-08
8.98209e-06
-2.22775e-08
8.9873e-06
-2.04279e-08
8.99244e-06
-1.86314e-08
8.99748e-06
-1.68896e-08
9.00237e-06
-1.51957e-08
9.0071e-06
-1.35322e-08
-1.1873e-08
9.01162e-06
7.94709e-06
-2.46187e-08
7.95417e-06
-3.57799e-08
7.96035e-06
-3.86927e-08
7.966e-06
-3.94791e-08
7.9713e-06
-3.9139e-08
7.9763e-06
-3.79584e-08
7.98107e-06
-3.63134e-08
7.98568e-06
-3.4452e-08
7.99019e-06
-3.24974e-08
7.99461e-06
-3.05144e-08
7.99898e-06
-2.85424e-08
8.00331e-06
-2.66046e-08
8.00759e-06
-2.47107e-08
8.01182e-06
-2.28603e-08
8.01598e-06
-2.10437e-08
8.02002e-06
-1.92401e-08
8.02391e-06
-1.74196e-08
-1.55573e-08
8.02759e-06
7.08244e-06
-3.27285e-08
7.08964e-06
-4.29928e-08
7.0951e-06
-4.41427e-08
7.09976e-06
-4.41468e-08
7.10397e-06
-4.3343e-08
7.10784e-06
-4.18236e-08
7.11148e-06
-3.9951e-08
7.11498e-06
-3.79493e-08
7.11839e-06
-3.59096e-08
7.12175e-06
-3.38752e-08
7.12508e-06
-3.18732e-08
7.12839e-06
-2.99173e-08
7.13168e-06
-2.80092e-08
7.13496e-06
-2.6141e-08
7.13821e-06
-2.42928e-08
7.14141e-06
-2.2431e-08
7.1445e-06
-2.05125e-08
-1.84999e-08
7.14744e-06
6.31236e-06
-4.25708e-08
6.31888e-06
-4.95067e-08
6.32293e-06
-4.81973e-08
6.32615e-06
-4.7365e-08
6.32892e-06
-4.6115e-08
6.33137e-06
-4.42858e-08
6.33363e-06
-4.22192e-08
6.33579e-06
-4.01071e-08
6.33788e-06
-3.8009e-08
6.33996e-06
-3.59504e-08
6.34204e-06
-3.39474e-08
6.34412e-06
-3.20052e-08
6.34623e-06
-3.01192e-08
6.34837e-06
-2.82764e-08
6.35053e-06
-2.64508e-08
6.3527e-06
-2.46002e-08
6.35485e-06
-2.26662e-08
-2.05821e-08
6.35693e-06
5.62602e-06
-5.36905e-08
5.63016e-06
-5.36551e-08
5.63179e-06
-4.98344e-08
5.63274e-06
-4.83223e-08
5.63326e-06
-4.66422e-08
5.6335e-06
-4.45261e-08
5.63358e-06
-4.23059e-08
5.6336e-06
-4.01281e-08
5.63362e-06
-3.8019e-08
5.63366e-06
-3.59854e-08
5.63374e-06
-3.403e-08
5.63389e-06
-3.21497e-08
5.6341e-06
-3.03367e-08
5.6344e-06
-2.85773e-08
5.6348e-06
-2.68446e-08
5.63529e-06
-2.50925e-08
5.63586e-06
-2.3244e-08
-2.11308e-08
5.63641e-06
5.01066e-06
-6.20489e-08
5.00737e-06
-5.03698e-08
5.00275e-06
-4.52126e-08
4.99756e-06
-4.3129e-08
4.99198e-06
-4.10504e-08
4.98626e-06
-3.87993e-08
4.98056e-06
-3.66008e-08
4.97495e-06
-3.45221e-08
4.96949e-06
-3.25573e-08
4.9642e-06
-3.06972e-08
4.9591e-06
-2.89338e-08
4.95421e-06
-2.72597e-08
4.94955e-06
-2.56687e-08
4.94512e-06
-2.41491e-08
4.94095e-06
-2.2681e-08
4.93709e-06
-2.12298e-08
4.93357e-06
-1.97189e-08
-1.76725e-08
4.93011e-06
4.3945e-06
4.34414e-06
4.29893e-06
4.2558e-06
4.21475e-06
4.17595e-06
4.13935e-06
4.10483e-06
4.07227e-06
4.04157e-06
4.01264e-06
3.98538e-06
3.95971e-06
3.93556e-06
3.91288e-06
3.89165e-06
3.87193e-06
3.85426e-06
2.00274e-08
-2.00274e-08
-1.89799e-08
3.90097e-08
-1.0592e-07
8.69356e-08
-2.21497e-07
1.15573e-07
-3.52832e-07
1.31334e-07
-4.93339e-07
1.40501e-07
-6.39677e-07
1.46338e-07
-7.89936e-07
1.50257e-07
-9.42824e-07
1.52885e-07
-1.09737e-06
1.54546e-07
-1.25282e-06
1.55442e-07
-1.40854e-06
1.55719e-07
-1.56404e-06
1.5549e-07
-1.71889e-06
1.54847e-07
-1.87275e-06
1.53864e-07
-2.02536e-06
1.52606e-07
-2.17649e-06
1.51127e-07
-2.32597e-06
1.49474e-07
-2.47365e-06
1.47686e-07
-2.61945e-06
1.45796e-07
-2.76328e-06
1.43828e-07
-2.90508e-06
1.41804e-07
-3.04482e-06
1.3974e-07
-3.18247e-06
1.37647e-07
-3.318e-06
1.35534e-07
-3.45141e-06
1.33403e-07
-3.58267e-06
1.31256e-07
-3.71176e-06
1.29089e-07
-3.83866e-06
1.26897e-07
-3.96333e-06
1.24672e-07
-4.08574e-06
1.22403e-07
-4.20582e-06
1.20076e-07
-4.32349e-06
1.17676e-07
-4.43868e-06
1.15185e-07
-4.55126e-06
1.12581e-07
-4.6611e-06
1.0984e-07
-4.76803e-06
1.06935e-07
-4.87187e-06
1.03837e-07
-4.97238e-06
1.00512e-07
-5.0693e-06
9.69233e-08
-5.16233e-06
9.30328e-08
-5.25113e-06
8.87974e-08
-5.33531e-06
8.41713e-08
-5.41441e-06
7.91055e-08
-5.48796e-06
7.35485e-08
-5.55541e-06
6.74478e-08
-5.61617e-06
6.0751e-08
-5.66958e-06
5.34075e-08
-5.71495e-06
4.53714e-08
-5.75156e-06
3.66024e-08
-5.77863e-06
2.7068e-08
-5.79538e-06
1.67441e-08
-5.801e-06
5.62221e-09
-5.7947e-06
-6.29998e-09
-5.77575e-06
-1.89536e-08
-5.74353e-06
-3.22139e-08
-5.69756e-06
-4.59696e-08
-5.63747e-06
-6.00876e-08
-5.56305e-06
-7.44193e-08
-5.47424e-06
-8.88045e-08
-5.37117e-06
-1.03076e-07
-5.2541e-06
-1.17065e-07
-5.1235e-06
-1.30603e-07
-4.97997e-06
-1.43531e-07
-4.82427e-06
-1.55699e-07
-4.6573e-06
-1.66974e-07
-4.48006e-06
-1.77244e-07
-4.29364e-06
-1.86415e-07
-4.09923e-06
-1.94417e-07
-3.89803e-06
-2.01203e-07
-3.69128e-06
-2.0675e-07
-3.48022e-06
-2.11057e-07
-3.26607e-06
-2.14144e-07
-3.05002e-06
-2.16049e-07
-2.83319e-06
-2.16825e-07
-2.61665e-06
-2.16538e-07
-2.40138e-06
-2.15265e-07
-2.18829e-06
-2.13088e-07
-1.9782e-06
-2.10095e-07
-1.77183e-06
-2.06372e-07
-1.56983e-06
-2.02003e-07
-1.37276e-06
-1.9707e-07
-1.18111e-06
-1.91651e-07
-9.95297e-07
-1.85817e-07
-8.15675e-07
-1.79623e-07
-6.42541e-07
-1.73133e-07
-4.76182e-07
-1.66358e-07
-3.16633e-07
-1.59548e-07
-1.63482e-07
-1.53154e-07
-1.61569e-08
-1.47329e-07
1.25262e-07
-1.41425e-07
2.60055e-07
-1.34796e-07
3.87933e-07
-1.27873e-07
5.08971e-07
-1.21028e-07
6.23322e-07
-1.14337e-07
7.31177e-07
-1.07844e-07
8.32765e-07
-1.01581e-07
9.28329e-07
-9.55633e-08
1.01812e-06
-8.97974e-08
1.10239e-06
-8.42831e-08
1.18141e-06
-7.90198e-08
1.25541e-06
-7.40056e-08
1.32466e-06
-6.92369e-08
1.38937e-06
-6.47093e-08
1.4498e-06
-6.04182e-08
1.50617e-06
-5.63574e-08
1.5587e-06
-5.25192e-08
1.60759e-06
-4.88952e-08
1.65307e-06
-4.54771e-08
1.69532e-06
-4.22554e-08
1.73453e-06
-3.92214e-08
1.77089e-06
-3.6367e-08
1.80457e-06
-3.36842e-08
1.83574e-06
-3.11654e-08
1.86454e-06
-2.88032e-08
1.89113e-06
-2.65908e-08
1.91566e-06
-2.45208e-08
1.93826e-06
-2.25863e-08
1.95904e-06
-2.07804e-08
1.97815e-06
-1.90965e-08
1.99568e-06
-1.75276e-08
2.01175e-06
-1.6067e-08
2.02646e-06
-1.47083e-08
2.0399e-06
-1.34455e-08
2.05218e-06
-1.22728e-08
2.06336e-06
-1.11852e-08
2.07354e-06
-1.01779e-08
2.08279e-06
-9.24686e-09
2.09118e-06
-8.38792e-09
2.09877e-06
-7.59659e-09
2.10564e-06
-6.86878e-09
2.11185e-06
-6.20119e-09
2.11744e-06
-5.59145e-09
2.12248e-06
-5.03652e-09
2.12701e-06
-4.53264e-09
2.13109e-06
-4.07615e-09
2.13475e-06
-3.66418e-09
2.13805e-06
-3.29401e-09
2.14102e-06
-2.96283e-09
2.14369e-06
-2.66824e-09
2.1461e-06
-2.40878e-09
2.14829e-06
-2.18309e-09
2.15027e-06
-1.98866e-09
2.1521e-06
-1.82183e-09
2.15377e-06
-1.67971e-09
2.15534e-06
-1.56124e-09
2.1568e-06
-1.4659e-09
2.15819e-06
-1.39188e-09
2.15953e-06
-1.33625e-09
2.16082e-06
-1.29694e-09
2.16209e-06
-1.27357e-09
2.16335e-06
-1.26532e-09
2.16462e-06
-1.26942e-09
2.1659e-06
-1.28304e-09
2.16721e-06
-1.30561e-09
2.16854e-06
-1.33716e-09
2.16992e-06
-1.37567e-09
2.17134e-06
-1.41998e-09
2.17281e-06
-1.47149e-09
2.17433e-06
-1.5246e-09
2.1759e-06
-1.57219e-09
2.17753e-06
-1.62187e-09
2.17921e-06
-1.67529e-09
2.18092e-06
-1.71746e-09
2.18266e-06
-1.74381e-09
2.18442e-06
-1.75384e-09
2.18616e-06
-1.73725e-09
2.18785e-06
-1.68849e-09
2.18943e-06
-1.58147e-09
2.19081e-06
-1.38426e-09
2.19189e-06
-1.07855e-09
2.1925e-06
-6.07451e-10
2.19244e-06
6.02547e-11
2.19139e-06
1.04832e-09
2.18883e-06
2.56003e-09
2.18386e-06
4.97285e-09
2.1753e-06
8.55592e-09
2.15823e-06
1.70678e-08
2.11965e-06
3.85856e-08
1.0471e-07
2.01494e-06
-9.46288e-08
7.4587e-08
-2.03868e-07
1.48238e-07
-3.1399e-07
1.97054e-07
-4.29711e-07
2.31291e-07
-5.5342e-07
2.55044e-07
-6.84523e-07
2.71605e-07
-8.21428e-07
2.83247e-07
-9.62562e-07
2.91396e-07
-1.10662e-06
2.96941e-07
-1.25253e-06
3.00468e-07
-1.39948e-06
3.02387e-07
-1.54676e-06
3.03009e-07
-1.69384e-06
3.02579e-07
-1.84028e-06
3.01295e-07
-1.98574e-06
2.99319e-07
-2.12992e-06
2.96789e-07
-2.2726e-06
2.93817e-07
-2.41363e-06
2.90499e-07
-2.55285e-06
2.86913e-07
-2.69018e-06
2.83124e-07
-2.82553e-06
2.7918e-07
-2.95885e-06
2.75123e-07
-3.09009e-06
2.70981e-07
-3.21922e-06
2.66777e-07
-3.34621e-06
2.62523e-07
-3.47103e-06
2.58225e-07
-3.59366e-06
2.53883e-07
-3.71406e-06
2.49489e-07
-3.83219e-06
2.45031e-07
-3.94801e-06
2.40494e-07
-4.06146e-06
2.35855e-07
-4.17247e-06
2.3109e-07
-4.28097e-06
2.26167e-07
-4.38683e-06
2.21052e-07
-4.48996e-06
2.15703e-07
-4.5902e-06
2.10076e-07
-4.68739e-06
2.04121e-07
-4.78134e-06
1.97782e-07
-4.87183e-06
1.90998e-07
-4.95861e-06
1.83702e-07
-5.0414e-06
1.7582e-07
-5.11988e-06
1.67273e-07
-5.19369e-06
1.57975e-07
-5.26242e-06
1.47836e-07
-5.32563e-06
1.36761e-07
-5.38283e-06
1.24652e-07
-5.4335e-06
1.11414e-07
-5.47704e-06
9.69506e-08
-5.51284e-06
8.11747e-08
-5.54025e-06
6.40083e-08
-5.55857e-06
4.5387e-08
-5.56709e-06
2.52619e-08
-5.56507e-06
3.60448e-09
-5.55183e-06
-1.95452e-08
-5.52673e-06
-4.40609e-08
-5.48917e-06
-6.9776e-08
-5.43866e-06
-9.64832e-08
-5.37482e-06
-1.23935e-07
-5.29739e-06
-1.51851e-07
-5.20627e-06
-1.79921e-07
-5.10153e-06
-2.07819e-07
-4.98338e-06
-2.35207e-07
-4.85223e-06
-2.61751e-07
-4.70863e-06
-2.87128e-07
-4.55329e-06
-3.11035e-07
-4.38706e-06
-3.332e-07
-4.21092e-06
-3.53388e-07
-4.02592e-06
-3.71409e-07
-3.83321e-06
-3.87119e-07
-3.63399e-06
-4.00421e-07
-3.42948e-06
-4.11266e-07
-3.22089e-06
-4.19648e-07
-3.00942e-06
-4.25607e-07
-2.79625e-06
-4.29219e-07
-2.58249e-06
-4.30591e-07
-2.36917e-06
-4.29855e-07
-2.15728e-06
-4.27163e-07
-1.94769e-06
-4.22684e-07
-1.74119e-06
-4.16594e-07
-1.5385e-06
-4.09067e-07
-1.34022e-06
-4.00286e-07
-1.14686e-06
-3.90421e-07
-9.58868e-07
-3.79647e-07
-7.76553e-07
-3.68131e-07
-6.00145e-07
-3.5603e-07
-4.29731e-07
-3.43546e-07
-2.65268e-07
-3.30817e-07
-1.0651e-07
-3.18299e-07
4.63155e-08
-3.0597e-07
1.92316e-07
-2.93319e-07
3.30878e-07
-2.7998e-07
4.62267e-07
-2.66182e-07
5.86879e-07
-2.52487e-07
7.04877e-07
-2.3903e-07
8.16458e-07
-2.25921e-07
9.21838e-07
-2.13224e-07
1.02124e-06
-2.00979e-07
1.1149e-06
-1.8921e-07
1.20305e-06
-1.7793e-07
1.28592e-06
-1.67141e-07
1.36375e-06
-1.56843e-07
1.43678e-06
-1.4703e-07
1.50524e-06
-1.37695e-07
1.56935e-06
-1.28827e-07
1.62933e-06
-1.20414e-07
1.68541e-06
-1.12445e-07
1.7378e-06
-1.04907e-07
1.78669e-06
-9.77842e-08
1.83228e-06
-9.10636e-08
1.87477e-06
-8.473e-08
1.91433e-06
-7.8768e-08
1.95113e-06
-7.3162e-08
1.98536e-06
-6.7896e-08
2.01715e-06
-6.29542e-08
2.04667e-06
-5.83211e-08
2.07406e-06
-5.39816e-08
2.09945e-06
-4.99208e-08
2.12299e-06
-4.61247e-08
2.14478e-06
-4.25796e-08
2.16495e-06
-3.92724e-08
2.18362e-06
-3.61901e-08
2.20087e-06
-3.33209e-08
2.21682e-06
-3.06529e-08
2.23155e-06
-2.81751e-08
2.24517e-06
-2.58769e-08
2.25774e-06
-2.37479e-08
2.26934e-06
-2.17791e-08
2.28006e-06
-1.99615e-08
2.28997e-06
-1.82863e-08
2.29912e-06
-1.67449e-08
2.30758e-06
-1.533e-08
2.31541e-06
-1.40347e-08
2.32267e-06
-1.28522e-08
2.32941e-06
-1.17757e-08
2.33568e-06
-1.07993e-08
2.34152e-06
-9.91707e-09
2.34699e-06
-9.12336e-09
2.35211e-06
-8.41286e-09
2.35693e-06
-7.78066e-09
2.36149e-06
-7.22221e-09
2.36582e-06
-6.73285e-09
2.36994e-06
-6.30764e-09
2.37389e-06
-5.94202e-09
2.3777e-06
-5.63195e-09
2.3814e-06
-5.37349e-09
2.385e-06
-5.1623e-09
2.38852e-06
-4.99476e-09
2.39199e-06
-4.86792e-09
2.39543e-06
-4.77819e-09
2.39885e-06
-4.72143e-09
2.40227e-06
-4.69476e-09
2.4057e-06
-4.69614e-09
2.40915e-06
-4.72267e-09
2.41264e-06
-4.77036e-09
2.41617e-06
-4.83654e-09
2.41975e-06
-4.91946e-09
2.42339e-06
-5.01654e-09
2.42709e-06
-5.12485e-09
2.43087e-06
-5.24378e-09
2.43472e-06
-5.37128e-09
2.43864e-06
-5.49963e-09
2.44264e-06
-5.62538e-09
2.44672e-06
-5.74909e-09
2.45086e-06
-5.86123e-09
2.45507e-06
-5.94977e-09
2.45932e-06
-6.00531e-09
2.46359e-06
-6.01008e-09
2.46785e-06
-5.94326e-09
2.47205e-06
-5.77344e-09
2.47612e-06
-5.4486e-09
2.47995e-06
-4.9077e-09
2.48339e-06
-4.05104e-09
2.48621e-06
-2.74172e-09
2.48802e-06
-7.69128e-10
2.48833e-06
2.2595e-09
2.48617e-06
7.13096e-09
2.47946e-06
1.52643e-08
2.46509e-06
3.14514e-08
2.43795e-06
6.57262e-08
1.44105e-07
2.39855e-06
-1.27869e-07
2.02457e-07
-2.54019e-07
2.74385e-07
-3.77091e-07
3.20124e-07
-5.00217e-07
3.54417e-07
-6.25467e-07
3.80292e-07
-7.53489e-07
3.99625e-07
-8.84098e-07
4.13855e-07
-1.01678e-06
4.2407e-07
-1.15092e-06
4.31084e-07
-1.28597e-06
4.3551e-07
-1.42141e-06
4.37825e-07
-1.55681e-06
4.38411e-07
-1.69182e-06
4.37583e-07
-1.82613e-06
4.35602e-07
-1.9595e-06
4.32687e-07
-2.09173e-06
4.29021e-07
-2.22267e-06
4.24757e-07
-2.35219e-06
4.20022e-07
-2.4802e-06
4.1492e-07
-2.60661e-06
4.09535e-07
-2.73136e-06
4.03933e-07
-2.85441e-06
3.98166e-07
-2.9757e-06
3.92272e-07
-3.0952e-06
3.86275e-07
-3.21286e-06
3.80191e-07
-3.32866e-06
3.74025e-07
-3.44256e-06
3.67773e-07
-3.55449e-06
3.61424e-07
-3.66443e-06
3.54959e-07
-3.77229e-06
3.48354e-07
-3.87801e-06
3.41577e-07
-3.9815e-06
3.3459e-07
-4.08268e-06
3.27349e-07
-4.18143e-06
3.19803e-07
-4.27762e-06
3.11893e-07
-4.3711e-06
3.03557e-07
-4.4617e-06
2.94723e-07
-4.54923e-06
2.85311e-07
-4.63347e-06
2.75233e-07
-4.71416e-06
2.64393e-07
-4.79102e-06
2.52685e-07
-4.86374e-06
2.39995e-07
-4.93197e-06
2.26203e-07
-4.99532e-06
2.1118e-07
-5.05335e-06
1.94789e-07
-5.10559e-06
1.76891e-07
-5.15152e-06
1.57345e-07
-5.19058e-06
1.36015e-07
-5.22217e-06
1.12771e-07
-5.24566e-06
8.75006e-08
-5.26038e-06
6.01106e-08
-5.26565e-06
3.05342e-08
-5.26079e-06
-1.25984e-09
-5.24511e-06
-3.52182e-08
-5.21799e-06
-7.11831e-08
-5.17883e-06
-1.08936e-07
-5.12713e-06
-1.48184e-07
-5.06249e-06
-1.88572e-07
-4.98465e-06
-2.2969e-07
-4.89349e-06
-2.71082e-07
-4.78905e-06
-3.12262e-07
-4.67154e-06
-3.52725e-07
-4.54133e-06
-3.91962e-07
-4.39897e-06
-4.2948e-07
-4.24519e-06
-4.64816e-07
-4.08084e-06
-4.97554e-07
-3.90689e-06
-5.27336e-07
-3.72442e-06
-5.53873e-07
-3.53459e-06
-5.76947e-07
-3.3386e-06
-5.96416e-07
-3.13766e-06
-6.12207e-07
-2.93298e-06
-6.2432e-07
-2.72578e-06
-6.32815e-07
-2.51718e-06
-6.37815e-07
-2.30828e-06
-6.39488e-07
-2.1001e-06
-6.38035e-07
-1.89358e-06
-6.3369e-07
-1.68955e-06
-6.26715e-07
-1.48876e-06
-6.1738e-07
-1.29187e-06
-6.05952e-07
-1.09945e-06
-5.92714e-07
-9.11935e-07
-5.77932e-07
-7.29706e-07
-5.61876e-07
-5.53022e-07
-5.44814e-07
-3.82054e-07
-5.26998e-07
-2.16863e-07
-5.08738e-07
-5.74487e-08
-4.90233e-07
9.56173e-08
-4.71367e-07
2.41498e-07
-4.51852e-07
3.80106e-07
-4.31927e-07
5.11774e-07
-4.11647e-07
6.36877e-07
-3.91283e-07
7.55577e-07
-3.71183e-07
8.68056e-07
-3.51507e-07
9.74503e-07
-3.32366e-07
1.07511e-06
-3.13832e-07
1.17008e-06
-2.95952e-07
1.25962e-06
-2.78754e-07
1.34395e-06
-2.62258e-07
1.42328e-06
-2.46469e-07
1.49783e-06
-2.31389e-07
1.56781e-06
-2.17013e-07
1.63345e-06
-2.03331e-07
1.69496e-06
-1.9033e-07
1.75254e-06
-1.77996e-07
1.80641e-06
-1.6631e-07
1.85676e-06
-1.55253e-07
1.90378e-06
-1.44807e-07
1.94766e-06
-1.34948e-07
1.98858e-06
-1.25656e-07
2.02672e-06
-1.16909e-07
2.06224e-06
-1.08683e-07
2.0953e-06
-1.00956e-07
2.12606e-06
-9.37048e-08
2.15465e-06
-8.69079e-08
2.18121e-06
-8.05432e-08
2.20588e-06
-7.4589e-08
2.22879e-06
-6.90248e-08
2.25004e-06
-6.38303e-08
2.26975e-06
-5.89859e-08
2.28804e-06
-5.4473e-08
2.30499e-06
-5.02737e-08
2.32071e-06
-4.63709e-08
2.33528e-06
-4.2748e-08
2.3488e-06
-3.93896e-08
2.36133e-06
-3.62811e-08
2.37296e-06
-3.34085e-08
2.38376e-06
-3.07588e-08
2.39379e-06
-2.8319e-08
2.40313e-06
-2.60773e-08
2.41182e-06
-2.40222e-08
2.41993e-06
-2.21434e-08
2.42751e-06
-2.04308e-08
2.43461e-06
-1.88745e-08
2.44127e-06
-1.74652e-08
2.44755e-06
-1.61946e-08
2.45349e-06
-1.50545e-08
2.45911e-06
-1.4037e-08
2.46447e-06
-1.31343e-08
2.46959e-06
-1.23393e-08
2.4745e-06
-1.16453e-08
2.47924e-06
-1.10458e-08
2.48383e-06
-1.05335e-08
2.4883e-06
-1.01014e-08
2.49267e-06
-9.74342e-09
2.49696e-06
-9.45458e-09
2.50119e-06
-9.23019e-09
2.50539e-06
-9.06496e-09
2.50956e-06
-8.95301e-09
2.51373e-06
-8.88892e-09
2.5179e-06
-8.86838e-09
2.52209e-06
-8.8876e-09
2.52631e-06
-8.94218e-09
2.53057e-06
-9.0279e-09
2.53487e-06
-9.14114e-09
2.53923e-06
-9.27886e-09
2.54365e-06
-9.43756e-09
2.54814e-06
-9.613e-09
2.5527e-06
-9.8021e-09
2.55733e-06
-1.00028e-08
2.56204e-06
-1.02092e-08
2.56682e-06
-1.04138e-08
2.57169e-06
-1.06119e-08
2.57662e-06
-1.07945e-08
2.58162e-06
-1.09475e-08
2.58667e-06
-1.1055e-08
2.59175e-06
-1.1092e-08
2.59683e-06
-1.10248e-08
2.60187e-06
-1.08094e-08
2.6068e-06
-1.03764e-08
2.61153e-06
-9.63062e-09
2.6159e-06
-8.42893e-09
2.61972e-06
-6.55784e-09
2.62263e-06
-3.68592e-09
2.62414e-06
7.51587e-10
2.62342e-06
7.84927e-09
2.61904e-06
1.96472e-08
2.60956e-06
4.09288e-08
2.59458e-06
8.07162e-08
1.57562e-07
2.58112e-06
-1.30646e-07
3.33102e-07
-2.60525e-07
4.04267e-07
-3.86634e-07
4.46232e-07
-5.10573e-07
4.78358e-07
-6.33663e-07
5.03382e-07
-7.56635e-07
5.22597e-07
-8.79779e-07
5.37001e-07
-1.00312e-06
5.47415e-07
-1.12655e-06
5.54516e-07
-1.2499e-06
5.58863e-07
-1.37299e-06
5.60916e-07
-1.49565e-06
5.61066e-07
-1.6177e-06
5.59643e-07
-1.73903e-06
5.56926e-07
-1.8595e-06
5.53154e-07
-1.979e-06
5.48528e-07
-2.09746e-06
5.43217e-07
-2.2148e-06
5.37361e-07
-2.33096e-06
5.31075e-07
-2.44587e-06
5.24451e-07
-2.5595e-06
5.17562e-07
-2.6718e-06
5.10464e-07
-2.78272e-06
5.03197e-07
-2.89223e-06
4.95786e-07
-3.00028e-06
4.88244e-07
-3.10683e-06
4.80575e-07
-3.21183e-06
4.72771e-07
-3.31522e-06
4.64815e-07
-3.41695e-06
4.56684e-07
-3.51693e-06
4.48343e-07
-3.61511e-06
4.39752e-07
-3.71138e-06
4.30861e-07
-3.80565e-06
4.21614e-07
-3.89779e-06
4.11946e-07
-3.98769e-06
4.01784e-07
-4.07518e-06
3.91045e-07
-4.16009e-06
3.79636e-07
-4.24223e-06
3.67454e-07
-4.32138e-06
3.54386e-07
-4.3973e-06
3.40308e-07
-4.4697e-06
3.25086e-07
-4.53828e-06
3.08572e-07
-4.60268e-06
2.90608e-07
-4.66252e-06
2.71024e-07
-4.71737e-06
2.49643e-07
-4.76677e-06
2.26282e-07
-4.81018e-06
2.00756e-07
-4.84705e-06
1.72882e-07
-4.87677e-06
1.42489e-07
-4.89869e-06
1.09424e-07
-4.91214e-06
7.35607e-08
-4.91642e-06
3.48131e-08
-4.91082e-06
-6.85324e-09
-4.89466e-06
-5.13849e-08
-4.86724e-06
-9.85983e-08
-4.82797e-06
-1.48208e-07
-4.77632e-06
-1.99833e-07
-4.71189e-06
-2.53007e-07
-4.63439e-06
-3.07187e-07
-4.54371e-06
-3.61766e-07
-4.43989e-06
-4.16085e-07
-4.32315e-06
-4.69462e-07
-4.1939e-06
-5.21207e-07
-4.05274e-06
-5.70646e-07
-3.9004e-06
-6.1715e-07
-3.7378e-06
-6.60151e-07
-3.56597e-06
-6.99169e-07
-3.38603e-06
-7.3382e-07
-3.19915e-06
-7.63821e-07
-3.00657e-06
-7.88994e-07
-2.80952e-06
-8.09256e-07
-2.60923e-06
-8.24617e-07
-2.40687e-06
-8.35174e-07
-2.20358e-06
-8.41107e-07
-2.00042e-06
-8.42653e-07
-1.79836e-06
-8.40094e-07
-1.59829e-06
-8.33751e-07
-1.40102e-06
-8.23986e-07
-1.20722e-06
-8.11178e-07
-1.0175e-06
-7.95673e-07
-8.32351e-07
-7.77865e-07
-6.52172e-07
-7.58111e-07
-4.77282e-07
-7.36766e-07
-3.07902e-07
-7.14194e-07
-1.44235e-07
-6.90666e-07
1.35395e-08
-6.66513e-07
1.64714e-07
-6.41408e-07
3.08851e-07
-6.15505e-07
4.46109e-07
-5.89111e-07
5.76672e-07
-5.6249e-07
7.00838e-07
-5.35812e-07
8.18862e-07
-5.09305e-07
9.30895e-07
-4.83214e-07
1.03709e-06
-4.57705e-07
1.13763e-06
-4.32896e-07
1.23267e-06
-4.08871e-07
1.3224e-06
-3.85685e-07
1.40702e-06
-3.63375e-07
1.48673e-06
-3.41964e-07
1.56172e-06
-3.21465e-07
1.63221e-06
-3.01878e-07
1.6984e-06
-2.832e-07
1.76049e-06
-2.6542e-07
1.81868e-06
-2.48522e-07
1.87317e-06
-2.32488e-07
1.92416e-06
-2.17296e-07
1.97183e-06
-2.02922e-07
2.01637e-06
-1.8934e-07
2.05794e-06
-1.76523e-07
2.09673e-06
-1.64443e-07
2.13289e-06
-1.53071e-07
2.16659e-06
-1.42378e-07
2.19796e-06
-1.32333e-07
2.22717e-06
-1.22908e-07
2.25434e-06