/*--------------------------------*- C++ -*----------------------------------*\
| =========                 |                                                 |
| \\      /  F ield         | OpenFOAM: The Open Source CFD Toolbox           |
|  \\    /   O peration     | Version:  1.4.2                                 |
|   \\  /    A nd           | Web:      http://www.openfoam.org               |
|    \\/     M anipulation  |                                                 |
\*---------------------------------------------------------------------------*/
FoamFile
{
    version     2.0;
    format      ascii;
    class       volVectorField;
    object      U;
    location    "200";
}
// * * * * * * * * * * * * * * * * * * * * * * * * * * * * * * * * * * * * * //

dimensions      [0 1 -1 0 0 0 0];

internalField   nonuniform List<vector> 
12225
(
(9.77619 0.0381082 0)
(9.5811 0.0388635 0)
(9.36599 0.0371149 0)
(9.15914 0.0362904 0)
(8.96673 0.035394 0)
(8.78658 0.0342795 0)
(8.61748 0.033075 0)
(8.45911 0.0318464 0)
(8.3111 0.0306089 0)
(8.17296 0.0293662 0)
(8.04421 0.0281227 0)
(7.92439 0.0268772 0)
(7.81315 0.0256187 0)
(7.71023 0.0243199 0)
(7.61563 0.0229174 0)
(7.52977 0.0212543 0)
(7.45475 0.0189536 0)
(7.38644 0.0050266 0)
(10.0039 0.0586706 0)
(10.0072 0.0557436 0)
(9.98169 0.0522046 0)
(9.94849 0.0519163 0)
(9.91408 0.0518002 0)
(9.87794 0.0513253 0)
(9.84005 0.0506973 0)
(9.80096 0.0500121 0)
(9.7611 0.0492731 0)
(9.7208 0.0484699 0)
(9.68033 0.0475962 0)
(9.63996 0.0466339 0)
(9.60003 0.0455382 0)
(9.56094 0.0442165 0)
(9.52332 0.0424718 0)
(9.48816 0.0398543 0)
(9.45734 0.0352466 0)
(9.42973 0.0242328 0)
(10.0173 0.052593 0)
(10.0364 0.0530423 0)
(10.037 0.0518435 0)
(10.0312 0.0530399 0)
(10.0244 0.0539447 0)
(10.0163 0.0542482 0)
(10.0067 0.0542867 0)
(9.99599 0.0542106 0)
(9.98442 0.0540439 0)
(9.97211 0.0537844 0)
(9.95918 0.0534235 0)
(9.94574 0.0529296 0)
(9.93196 0.0522279 0)
(9.91805 0.0511677 0)
(9.90432 0.0494476 0)
(9.89116 0.0464519 0)
(9.87898 0.0408301 0)
(9.8642 0.0296197 0)
(10.0157 0.0451999 0)
(10.037 0.0506665 0)
(10.0445 0.0515204 0)
(10.0463 0.0533893 0)
(10.0469 0.0547652 0)
(10.0463 0.0555102 0)
(10.0444 0.0559477 0)
(10.0416 0.0562335 0)
(10.0381 0.0564064 0)
(10.034 0.0564729 0)
(10.0294 0.0564234 0)
(10.0243 0.0562194 0)
(10.0189 0.0557715 0)
(10.0132 0.0549067 0)
(10.0074 0.053306 0)
(10.0015 0.0504007 0)
(9.99513 0.0452488 0)
(9.98569 0.0366434 0)
(10.0124 0.0374284 0)
(10.0325 0.0468885 0)
(10.0431 0.049743 0)
(10.0483 0.0523293 0)
(10.0519 0.0541597 0)
(10.0543 0.0552847 0)
(10.0556 0.0560434 0)
(10.056 0.056609 0)
(10.0556 0.0570367 0)
(10.0547 0.057343 0)
(10.0532 0.0575211 0)
(10.0513 0.0575336 0)
(10.0489 0.0572913 0)
(10.0461 0.0566279 0)
(10.0429 0.0552603 0)
(10.0391 0.052743 0)
(10.0342 0.0484896 0)
(10.0264 0.0420591 0)
(10.0092 0.0306898 0)
(10.0267 0.0423485 0)
(10.0385 0.0469462 0)
(10.0456 0.0503317 0)
(10.0511 0.0526907 0)
(10.0552 0.0542436 0)
(10.0581 0.0553492 0)
(10.0602 0.0562045 0)
(10.0615 0.0568929 0)
(10.0621 0.0574496 0)
(10.0622 0.0578768 0)
(10.0617 0.0581423 0)
(10.0608 0.0581674 0)
(10.0592 0.0578125 0)
(10.057 0.0568568 0)
(10.0539 0.0549899 0)
(10.0494 0.0518899 0)
(10.0423 0.0475065 0)
(10.0066 0.0250498 0)
(10.021 0.0375924 0)
(10.0327 0.0434752 0)
(10.0408 0.0475707 0)
(10.0473 0.0504758 0)
(10.0526 0.0524952 0)
(10.0566 0.0539883 0)
(10.0598 0.055172 0)
(10.0621 0.0561562 0)
(10.0637 0.0569945 0)
(10.0647 0.0577023 0)
(10.0651 0.0582638 0)
(10.0649 0.0586249 0)
(10.064 0.0586851 0)
(10.0623 0.0582934 0)
(10.0595 0.0572649 0)
(10.0552 0.0554714 0)
(10.0484 0.0530769 0)
(10.0049 0.0210378 0)
(10.0168 0.033641 0)
(10.0277 0.040247 0)
(10.036 0.044828 0)
(10.0429 0.0481382 0)
(10.0487 0.0505303 0)
(10.0534 0.05236 0)
(10.0572 0.0538494 0)
(10.0602 0.0551189 0)
(10.0624 0.0562345 0)
(10.064 0.0572256 0)
(10.0649 0.0580926 0)
(10.0651 0.0588064 0)
(10.0645 0.0593061 0)
(10.063 0.0595059 0)
(10.0604 0.0593182 0)
(10.0563 0.0587463 0)
(10.0498 0.0580602 0)
(10.0037 0.0179841 0)
(10.0136 0.0302651 0)
(10.0235 0.0372781 0)
(10.0317 0.0422068 0)
(10.0387 0.0458294 0)
(10.0448 0.0485248 0)
(10.0498 0.0506404 0)
(10.054 0.0523989 0)
(10.0575 0.0539295 0)
(10.0601 0.055309 0)
(10.0621 0.0565787 0)
(10.0634 0.0577526 0)
(10.064 0.0588232 0)
(10.0637 0.0597663 0)
(10.0625 0.0605531 0)
(10.0601 0.061176 0)
(10.0562 0.0617387 0)
(10.0501 0.0625727 0)
(10.0028 0.0152413 0)
(10.0107 0.0268561 0)
(10.0195 0.0340546 0)
(10.0273 0.0392245 0)
(10.0342 0.0431111 0)
(10.0403 0.0460904 0)
(10.0455 0.0484908 0)
(10.05 0.050531 0)
(10.0538 0.0523459 0)
(10.0569 0.054022 0)
(10.0592 0.0556132 0)
(10.0609 0.0571509 0)
(10.0618 0.0586521 0)
(10.0619 0.0601285 0)
(10.061 0.0616037 0)
(10.0589 0.0631437 0)
(10.0554 0.0649361 0)
(10.05 0.0673769 0)
(10.002 0.0128071 0)
(10.0083 0.0234977 0)
(10.0159 0.0306583 0)
(10.023 0.0359372 0)
(10.0296 0.0400107 0)
(10.0355 0.0432309 0)
(10.0409 0.0458951 0)
(10.0455 0.0482134 0)
(10.0495 0.0503232 0)
(10.0528 0.0523191 0)
(10.0555 0.0542678 0)
(10.0575 0.0562189 0)
(10.0588 0.0582144 0)
(10.0592 0.0603012 0)
(10.0588 0.0625485 0)
(10.0572 0.0650801 0)
(10.0544 0.0681445 0)
(10.05 0.0721866 0)
(10.0015 0.0106758 0)
(10.0063 0.0202626 0)
(10.0127 0.0271646 0)
(10.0192 0.0324111 0)
(10.0252 0.036574 0)
(10.0309 0.0399692 0)
(10.0361 0.0428561 0)
(10.0408 0.0454303 0)
(10.0449 0.0478282 0)
(10.0485 0.0501506 0)
(10.0514 0.0524757 0)
(10.0537 0.0548703 0)
(10.0554 0.0573994 0)
(10.0563 0.0601388 0)
(10.0564 0.063191 0)
(10.0555 0.066717 0)
(10.0536 0.0709985 0)
(10.0506 0.0764963 0)
(10.0011 0.00882101 0)
(10.0048 0.0171982 0)
(10.0102 0.0236353 0)
(10.0158 0.0287029 0)
(10.0214 0.0328439 0)
(10.0267 0.0363296 0)
(10.0317 0.039379 0)
(10.0363 0.0421673 0)
(10.0405 0.0448265 0)
(10.0442 0.0474596 0)
(10.0474 0.0501537 0)
(10.05 0.0529884 0)
(10.0521 0.0560456 0)
(10.0535 0.0594185 0)
(10.0543 0.0632269 0)
(10.0544 0.0676461 0)
(10.0537 0.072964 0)
(10.0522 0.0796183 0)
(10.0008 0.00719251 0)
(10.0037 0.0143132 0)
(10.0081 0.0201045 0)
(10.0131 0.0248429 0)
(10.0182 0.0288399 0)
(10.0232 0.0323148 0)
(10.028 0.0354469 0)
(10.0325 0.0383863 0)
(10.0367 0.041255 0)
(10.0405 0.0441533 0)
(10.0439 0.0471711 0)
(10.0469 0.0503935 0)
(10.0495 0.0539084 0)
(10.0516 0.0578125 0)
(10.0533 0.0622254 0)
(10.0544 0.0673165 0)
(10.0551 0.0733565 0)
(10.0555 0.080728 0)
(10.0006 0.00572487 0)
(10.003 0.0115714 0)
(10.0067 0.0165635 0)
(10.0111 0.0208187 0)
(10.0157 0.0245364 0)
(10.0204 0.0278811 0)
(10.025 0.0309924 0)
(10.0295 0.0339921 0)
(10.0338 0.0369855 0)
(10.0378 0.0400636 0)
(10.0415 0.0433098 0)
(10.045 0.0468044 0)
(10.0482 0.050628 0)
(10.051 0.0548671 0)
(10.0537 0.0596252 0)
(10.0561 0.0650501 0)
(10.0583 0.0713839 0)
(10.0604 0.0789394 0)
(10.0005 0.00434122 0)
(10.0025 0.00888747 0)
(10.0057 0.0129418 0)
(10.0097 0.0165537 0)
(10.014 0.0198398 0)
(10.0185 0.0229118 0)
(10.0231 0.0258692 0)
(10.0276 0.0288027 0)
(10.0321 0.0317936 0)
(10.0364 0.0349155 0)
(10.0405 0.038235 0)
(10.0445 0.0418163 0)
(10.0484 0.0457212 0)
(10.0522 0.0500137 0)
(10.0558 0.0547717 0)
(10.0595 0.0601153 0)
(10.0632 0.066257 0)
(10.067 0.0734445 0)
(10.0005 0.00295071 0)
(10.0023 0.00612293 0)
(10.0052 0.00909082 0)
(10.009 0.0118849 0)
(10.0132 0.0145647 0)
(10.0177 0.0171923 0)
(10.0223 0.0198269 0)
(10.0271 0.0225243 0)
(10.0318 0.0253355 0)
(10.0365 0.0283076 0)
(10.0411 0.0314826 0)
(10.0457 0.0348995 0)
(10.0504 0.038594 0)
(10.055 0.0426026 0)
(10.0597 0.0469737 0)
(10.0645 0.0517989 0)
(10.0694 0.0572651 0)
(10.0747 0.0635835 0)
(10.0004 0.00152753 0)
(10.0022 0.00325835 0)
(10.0052 0.00503513 0)
(10.009 0.00688428 0)
(10.0134 0.00881912 0)
(10.018 0.0108552 0)
(10.0229 0.0130106 0)
(10.0279 0.015304 0)
(10.033 0.0177541 0)
(10.0381 0.0203774 0)
(10.0433 0.0231892 0)
(10.0485 0.0262011 0)
(10.0537 0.0294223 0)
(10.0591 0.0328621 0)
(10.0646 0.0365417 0)
(10.0703 0.040526 0)
(10.0761 0.04498 0)
(10.0823 0.0501217 0)
(10.0005 0.00010912 0)
(10.0025 0.000399966 0)
(10.0057 0.000989815 0)
(10.0098 0.00189101 0)
(10.0144 0.00306292 0)
(10.0194 0.00447269 0)
(10.0246 0.00609842 0)
(10.0299 0.00792357 0)
(10.0353 0.00993654 0)
(10.0409 0.0121274 0)
(10.0465 0.0144874 0)
(10.0521 0.0170057 0)
(10.0579 0.0196697 0)
(10.0637 0.0224672 0)
(10.0697 0.0253967 0)
(10.0758 0.0284969 0)
(10.0821 0.0319071 0)
(10.0888 0.0358668 0)
(10.0006 -0.00133584 0)
(10.0029 -0.00246638 0)
(10.0066 -0.00299147 0)
(10.0112 -0.00295443 0)
(10.0162 -0.00247311 0)
(10.0215 -0.00163297 0)
(10.0271 -0.000494632 0)
(10.0328 0.000893339 0)
(10.0386 0.00249229 0)
(10.0444 0.00427158 0)
(10.0503 0.00620434 0)
(10.0563 0.0082649 0)
(10.0623 0.010427 0)
(10.0685 0.0126641 0)
(10.0746 0.0149571 0)
(10.0809 0.0173189 0)
(10.0874 0.0198518 0)
(10.0941 0.0227878 0)
(10.0007 -0.00291036 0)
(10.0036 -0.00547948 0)
(10.008 -0.00702611 0)
(10.0131 -0.00773789 0)
(10.0187 -0.00784465 0)
(10.0245 -0.00748688 0)
(10.0304 -0.00676318 0)
(10.0364 -0.0057513 0)
(10.0425 -0.00451163 0)
(10.0486 -0.00308891 0)
(10.0548 -0.00152043 0)
(10.061 0.000159851 0)
(10.0672 0.00191852 0)
(10.0734 0.00372191 0)
(10.0796 0.00554014 0)
(10.0859 0.00736552 0)
(10.0922 0.00926 0)
(10.0987 0.0114109 0)
(10.001 -0.00472591 0)
(10.0047 -0.00875734 0)
(10.01 -0.0111886 0)
(10.0159 -0.0125016 0)
(10.0219 -0.0130724 0)
(10.0282 -0.0130895 0)
(10.0344 -0.0126862 0)
(10.0407 -0.0119683 0)
(10.047 -0.0110125 0)
(10.0533 -0.00987365 0)
(10.0596 -0.0085946 0)
(10.0659 -0.00721163 0)
(10.0721 -0.00575842 0)
(10.0783 -0.00426763 0)
(10.0845 -0.00276925 0)
(10.0906 -0.00128096 0)
(10.0967 0.00022659 0)
(10.1028 0.00187946 0)
(10.0015 -0.00692826 0)
(10.0064 -0.0124041 0)
(10.0128 -0.0155042 0)
(10.0194 -0.0172319 0)
(10.026 -0.0181179 0)
(10.0325 -0.0183828 0)
(10.0391 -0.0181927 0)
(10.0455 -0.0176792 0)
(10.0519 -0.0169299 0)
(10.0582 -0.016004 0)
(10.0644 -0.0149444 0)
(10.0706 -0.0137851 0)
(10.0768 -0.0125546 0)
(10.0829 -0.0112785 0)
(10.0889 -0.00997942 0)
(10.0947 -0.00867236 0)
(10.1005 -0.00734409 0)
(10.1062 -0.00592258 0)
(10.0022 -0.00969885 0)
(10.0088 -0.0164841 0)
(10.0165 -0.0199272 0)
(10.0237 -0.0218421 0)
(10.0306 -0.0228762 0)
(10.0373 -0.0232523 0)
(10.0438 -0.0231679 0)
(10.0501 -0.0227733 0)
(10.0564 -0.0221601 0)
(10.0625 -0.0213855 0)
(10.0685 -0.020489 0)
(10.0744 -0.0194992 0)
(10.0803 -0.0184365 0)
(10.0861 -0.017315 0)
(10.0918 -0.0161436 0)
(10.0974 -0.0149236 0)
(10.1028 -0.01364 0)
(10.1081 -0.0122522 0)
(10.0034 -0.0132553 0)
(10.0122 -0.0209817 0)
(10.021 -0.0243226 0)
(10.0285 -0.0261739 0)
(10.0353 -0.0271873 0)
(10.0418 -0.0275474 0)
(10.0479 -0.0274744 0)
(10.0538 -0.0271273 0)
(10.0595 -0.0265938 0)
(10.0651 -0.0259241 0)
(10.0707 -0.0251513 0)
(10.0762 -0.0242964 0)
(10.0816 -0.0233706 0)
(10.0869 -0.022376 0)
(10.0922 -0.0213057 0)
(10.0974 -0.0201415 0)
(10.1024 -0.0188516 0)
(10.1073 -0.0174 0)
(10.0051 -0.0178542 0)
(10.0164 -0.025724 0)
(10.0259 -0.0284158 0)
(10.0329 -0.0299682 0)
(10.039 -0.0308109 0)
(10.0447 -0.0310515 0)
(10.05 -0.0309229 0)
(10.055 -0.0305806 0)
(10.0599 -0.0300971 0)
(10.0647 -0.0295095 0)
(10.0694 -0.0288415 0)
(10.0741 -0.028106 0)
(10.0787 -0.0273057 0)
(10.0834 -0.0264329 0)
(10.088 -0.0254664 0)
(10.0926 -0.0243681 0)
(10.097 -0.0230829 0)
(10.1014 -0.0215583 0)
(10.0076 -0.0238123 0)
(10.0212 -0.0303528 0)
(10.03 -0.0317628 0)
(10.0353 -0.0328599 0)
(10.0398 -0.0334763 0)
(10.0439 -0.033573 0)
(10.0476 -0.033379 0)
(10.0511 -0.0330367 0)
(10.0545 -0.0325982 0)
(10.0578 -0.0320868 0)
(10.0611 -0.0315174 0)
(10.0644 -0.0308964 0)
(10.0677 -0.0302205 0)
(10.0711 -0.0294756 0)
(10.0745 -0.0286312 0)
(10.0779 -0.0276346 0)
(10.0814 -0.0264092 0)
(10.0848 -0.0248726 0)
(10.0102 -0.0305403 0)
(10.0243 -0.0339565 0)
(10.0299 -0.0336467 0)
(10.0314 -0.0342399 0)
(10.0323 -0.0346419 0)
(10.033 -0.0346109 0)
(10.0333 -0.034357 0)
(10.0334 -0.0340062 0)
(10.0334 -0.0335942 0)
(10.0334 -0.0331345 0)
(10.0335 -0.0326363 0)
(10.0337 -0.0321021 0)
(10.034 -0.0315265 0)
(10.0345 -0.0308942 0)
(10.0351 -0.0301719 0)
(10.0359 -0.0292989 0)
(10.0369 -0.0281753 0)
(10.038 -0.0266493 0)
(10.0063 -0.0362931 0)
(10.0147 -0.0376892 0)
(10.0079 -0.0357032 0)
(9.9964 -0.0354072 0)
(9.98504 -0.0352596 0)
(9.97377 -0.0348699 0)
(9.96237 -0.0343786 0)
(9.95103 -0.0338723 0)
(9.93994 -0.0333639 0)
(9.92918 -0.0328517 0)
(9.91879 -0.0323335 0)
(9.90881 -0.0318051 0)
(9.89925 -0.0312606 0)
(9.89015 -0.0306865 0)
(9.88156 -0.0300561 0)
(9.87353 -0.0293152 0)
(9.86615 -0.0283527 0)
(9.85919 -0.0267141 0)
(9.89301 -0.0247951 0)
(9.80384 -0.0269985 0)
(9.70022 -0.0263692 0)
(9.59822 -0.0261747 0)
(9.50297 -0.0259319 0)
(9.41353 -0.025531 0)
(9.32904 -0.0250652 0)
(9.24925 -0.0245884 0)
(9.17399 -0.0241135 0)
(9.10303 -0.0236425 0)
(9.03615 -0.0231747 0)
(8.97313 -0.022709 0)
(8.91376 -0.0222438 0)
(8.85789 -0.0217747 0)
(8.80536 -0.0212916 0)
(8.75609 -0.0207713 0)
(8.71021 -0.0201538 0)
(8.66657 -0.019051 0)
(0.0154554 -0.064234 0)
(0.0144239 0.00122912 0)
(-0.0451205 0.0870536 0)
(-0.139634 0.135346 0)
(-0.250897 0.156686 0)
(-0.371985 0.165442 0)
(-0.499565 0.169055 -3.04947e-20)
(-0.631404 0.170359 2.7098e-20)
(-0.766192 0.170363 0)
(-0.902972 0.169494 2.27611e-20)
(-1.04099 0.167988 0)
(-1.17965 0.166003 0)
(-1.31846 0.163655 0)
(-1.457 0.161034 -1.88513e-20)
(-1.59495 0.158213 0)
(-1.73203 0.155251 0)
(-1.86804 0.152195 1.77841e-20)
(-2.00278 0.149085 0)
(-2.13613 0.145951 0)
(-2.26798 0.142819 0)
(-2.39826 0.139706 -1.74248e-20)
(-2.52689 0.136626 0)
(-2.65384 0.133589 -1.74847e-20)
(-2.77908 0.130601 0)
(-2.90259 0.127662 0)
(-3.02435 0.124772 -1.77299e-20)
(-3.14433 0.121925 0)
(-3.26253 0.119115 1.79513e-20)
(-3.37893 0.116333 0)
(-3.49349 0.113568 -1.81932e-20)
(-3.60619 0.110807 0)
(-3.71697 0.108036 0)
(-3.82578 0.105238 0)
(-3.93253 0.102393 0)
(-4.03715 0.099482 0)
(-4.13951 0.0964816 1.88829e-20)
(-4.23947 0.0933679 0)
(-4.33689 0.0901152 -3.81114e-20)
(-4.43155 0.0866949 0)
(-4.52325 0.0830764 3.83549e-20)
(-4.61173 0.0792264 0)
(-4.69668 0.0751099 0)
(-4.77778 0.07069 -3.84611e-20)
(-4.85464 0.0659286 0)
(-4.92683 0.0607871 -3.83064e-20)
(-4.99389 0.0552273 3.81457e-20)
(-5.05528 0.0492124 0)
(-5.11044 0.0427089 3.76273e-20)
(-5.15873 0.0356881 3.72561e-20)
(-5.19949 0.0281277 0)
(-5.23204 0.0200135 0)
(-5.25568 0.0113374 0)
(-5.26966 0.0021045 0)
(-5.27313 -0.00764402 0)
(-5.26538 -0.0178494 -3.28803e-20)
(-5.24584 -0.0284362 0)
(-5.21394 -0.0393196 3.03243e-20)
(-5.16927 -0.0503953 0)
(-5.11153 -0.0615508 0)
(-5.04058 -0.0726684 -2.53286e-20)
(-4.9564 -0.0836282 0)
(-4.85916 -0.0943112 2.11649e-20)
(-4.74915 -0.104602 0)
(-4.62685 -0.114393 0)
(-4.49285 -0.123587 0)
(-4.34789 -0.132097 -1.07263e-20)
(-4.19283 -0.139852 0)
(-4.02861 -0.146795 0)
(-3.85625 -0.152885 -9.99739e-22)
(-3.67685 -0.158096 0)
(-3.49151 -0.16242 6.40982e-21)
(-3.30138 -0.165861 0)
(-3.10758 -0.168439 0)
(-2.9112 -0.170182 0)
(-2.71331 -0.17113 -2.35692e-20)
(-2.51492 -0.171328 0)
(-2.31698 -0.170829 0)
(-2.12036 -0.169684 -3.8709e-20)
(-1.92586 -0.167949 -4.42473e-20)
(-1.73419 -0.165675 0)
(-1.546 -0.162909 -5.61526e-20)
(-1.36186 -0.159694 0)
(-1.18226 -0.156063 -1.38561e-19)
(-1.00762 -0.152039 0)
(-0.83832 -0.147623 -1.67567e-19)
(-0.67464 -0.142831 0)
(-0.516859 -0.137704 1.99786e-19)
(-0.365243 -0.132639 0)
(-0.21995 -0.128396 0)
(-0.0816015 -0.124867 0)
(0.0571665 -0.119977 -2.74172e-19)
(0.184954 -0.113461 0)
(0.307845 -0.106729 2.63374e-19)
(0.424704 -0.100104 0)
(0.535444 -0.0936616 -2.54318e-19)
(0.640206 -0.0874554 -2.5008e-19)
(0.739183 -0.0815252 -2.46043e-19)
(0.832584 -0.0758933 0)
(0.920633 -0.0705694 0)
(1.00355 -0.0655543 0)
(1.08157 -0.0608424 0)
(1.15491 -0.0564245 0)
(1.2238 -0.0522892 0)
(1.28845 -0.0484241 0)
(1.34907 -0.0448161 0)
(1.40588 -0.0414521 2.19949e-19)
(1.45908 -0.0383188 2.18102e-19)
(1.50885 -0.0354037 0)
(1.55539 -0.0326943 0)
(1.59889 -0.0301784 0)
(1.63951 -0.0278441 2.12346e-19)
(1.67742 -0.0256804 0)
(1.71279 -0.0236762 0)
(1.74577 -0.021821 0)
(1.77651 -0.0201047 0)
(1.80514 -0.0185179 -2.08071e-19)
(1.83181 -0.0170516 0)
(1.85663 -0.0156974 0)
(1.87973 -0.0144474 2.06659e-19)
(1.90122 -0.0132944 -2.06339e-19)
(1.9212 -0.0122315 0)
(1.93979 -0.0112523 -2.05893e-19)
(1.95708 -0.0103509 0)
(1.97315 -0.00952177 2.05668e-19)
(1.9881 -0.00875967 0)
(2.00202 -0.00805966 0)
(2.01497 -0.0074172 0)
(2.02703 -0.00682816 0)
(2.03827 -0.00628864 0)
(2.04875 -0.00579498 -4.11974e-19)
(2.05854 -0.00534373 -4.12295e-19)
(2.0677 -0.00493189 0)
(2.07628 -0.00455677 0)
(2.08434 -0.0042158 0)
(2.09191 -0.00390648 4.1399e-19)
(2.09906 -0.00362653 0)
(2.10583 -0.00337392 0)
(2.11225 -0.00314669 0)
(2.11836 -0.00294287 4.16132e-19)
(2.12421 -0.00276061 -4.1671e-19)
(2.12983 -0.00259837 0)
(2.13524 -0.00245481 0)
(2.14049 -0.00232852 -4.18501e-19)
(2.1456 -0.00221794 -4.19109e-19)
(2.15059 -0.00212157 0)
(2.15549 -0.00203828 0)
(2.16033 -0.00196725 4.2094e-19)
(2.16513 -0.0019074 -4.21547e-19)
(2.1699 -0.00185733 0)
(2.17466 -0.00181591 0)
(2.17944 -0.00178262 -4.23342e-19)
(2.18424 -0.00175693 0)
(2.18909 -0.00173778 0)
(2.19399 -0.00172401 -4.25071e-19)
(2.19895 -0.00171473 0)
(2.20398 -0.00170958 -4.26176e-19)
(2.2091 -0.00170841 0)
(2.21431 -0.00171004 0)
(2.21961 -0.00171331 0)
(2.22501 -0.00171818 4.28242e-19)
(2.23052 -0.00172425 0)
(2.23613 -0.00173053 0)
(2.24184 -0.00173564 0)
(2.24766 -0.0017378 0)
(2.25356 -0.00173586 0)
(2.25954 -0.00172865 0)
(2.26557 -0.00171289 4.31368e-19)
(2.27163 -0.00168402 4.31792e-19)
(2.27766 -0.00163695 0)
(2.28359 -0.00156373 0)
(2.28934 -0.00145451 0)
(2.29474 -0.00129385 -4.33831e-19)
(2.29962 -0.00106756 0)
(2.30373 -0.000738639 8.70735e-19)
(2.30662 -0.000218365 -8.72745e-19)
(2.30731 0.00066572 -8.75364e-19)
(2.30501 0.000465474 8.78547e-19)
(2.29801 0.00108252 -8.86525e-19)
(2.27916 0.00705718 8.97966e-19)
(2.1948 0.0282516 0)
(-0.0660475 0.0382766 0)
(-0.132725 0.169716 0)
(-0.224862 0.256784 5.80628e-20)
(-0.3257 0.31278 0)
(-0.432401 0.347699 -3.9907e-20)
(-0.545699 0.369662 -3.53681e-20)
(-0.664897 0.383629 -1.5995e-20)
(-0.788592 0.392348 -1.47915e-20)
(-0.915515 0.397353 0)
(-1.04464 0.399569 -1.30821e-20)
(-1.17513 0.399616 0)
(-1.30633 0.397947 0)
(-1.4377 0.394912 2.33866e-20)
(-1.56882 0.39079 1.14795e-20)
(-1.69934 0.38581 -2.2494e-20)
(-1.82897 0.380161 -2.2224e-20)
(-1.9575 0.374001 -1.10799e-20)
(-2.08475 0.367462 0)
(-2.21059 0.36065 0)
(-2.33492 0.353653 0)
(-2.45766 0.346541 -1.0883e-20)
(-2.57874 0.339368 0)
(-2.69813 0.332177 3.32063e-20)
(-2.81578 0.324997 0)
(-2.93167 0.317848 0)
(-3.04577 0.310739 1.13232e-20)
(-3.15806 0.303671 0)
(-3.2685 0.296639 -1.14754e-20)
(-3.37707 0.289632 -2.2916e-20)
(-3.48373 0.282632 1.16288e-20)
(-3.58843 0.275617 0)
(-3.69111 0.268559 0)
(-3.7917 0.261427 0)
(-3.89011 0.254186 -2.36143e-20)
(-3.98626 0.246793 -2.37241e-20)
(-4.08001 0.239204 -1.19939e-20)
(-4.17122 0.231369 0)
(-4.25974 0.223235 2.41044e-20)
(-4.34538 0.214742 0)
(-4.42793 0.205826 -2.4125e-20)
(-4.50713 0.196419 0)
(-4.58272 0.186446 0)
(-4.65437 0.175828 2.39277e-20)
(-4.72175 0.164486 0)
(-4.78446 0.152334 7.07622e-20)
(-4.84208 0.13929 -2.33875e-20)
(-4.89413 0.125273 0)
(-4.9401 0.110205 -2.27982e-20)
(-4.97942 0.0940202 -2.24265e-20)
(-5.01151 0.0766628 0)
(-5.03575 0.0580923 0)
(-5.05151 0.0382809 0)
(-5.05812 0.0172187 0)
(-5.05471 -0.0050388 0)
(-5.04088 -0.0283118 1.88699e-20)
(-5.01595 -0.0523896 3.68485e-20)
(-4.97942 -0.0770514 -1.70691e-20)
(-4.93084 -0.102047 0)
(-4.8699 -0.127104 3.1114e-20)
(-4.7964 -0.151936 -1.50946e-20)
(-4.71031 -0.176248 0)
(-4.61172 -0.199751 -1.12789e-20)
(-4.50089 -0.222167 0)
(-4.37823 -0.243236 0)
(-4.24429 -0.262727 -1.57571e-20)
(-4.09977 -0.280441 5.4214e-21)
(-3.94549 -0.296217 -9.62091e-21)
(-3.78237 -0.309936 6.4028e-21)
(-3.6114 -0.32152 4.82007e-22)
(-3.43364 -0.330933 0)
(-3.2502 -0.338178 -2.98238e-21)
(-3.06218 -0.343295 0)
(-2.87069 -0.346359 0)
(-2.67682 -0.347473 0)
(-2.48162 -0.346759 -7.71261e-21)
(-2.28608 -0.344359 0)
(-2.09112 -0.340427 -2.49826e-20)
(-1.89761 -0.335122 4.40614e-20)
(-1.70631 -0.328607 1.72819e-20)
(-1.51793 -0.321039 0)
(-1.33308 -0.312574 2.08558e-20)
(-1.15228 -0.303353 0)
(-0.975989 -0.293516 4.88833e-20)
(-0.804559 -0.283191 0)
(-0.638255 -0.272498 5.61627e-20)
(-0.477228 -0.2616 -1.15413e-19)
(-0.32157 -0.250646 -6.36786e-20)
(-0.17119 -0.240082 0)
(-0.0256464 -0.229955 0)
(0.114382 -0.219924 0)
(0.247695 -0.209003 7.33317e-20)
(0.374099 -0.197195 0)
(0.494405 -0.185618 -7.4834e-20)
(0.608656 -0.174373 0)
(0.717008 -0.16355 2.26046e-19)
(0.81964 -0.153193 7.69605e-20)
(0.916748 -0.143324 7.76713e-20)
(1.00853 -0.133949 0)
(1.0952 -0.125065 0)
(1.17696 -0.116665 0)
(1.25402 -0.108735 0)
(1.3266 -0.101262 0)
(1.3949 -0.094228 1.62845e-19)
(1.45913 -0.0876169 1.64574e-19)
(1.51949 -0.0814111 0)
(1.57618 -0.075593 -8.46683e-20)
(1.62939 -0.070145 -8.55249e-20)
(1.67931 -0.0650496 0)
(1.72612 -0.0602894 -1.73584e-19)
(1.77 -0.0558472 0)
(1.8111 -0.0517061 8.82486e-20)
(1.84961 -0.0478497 0)
(1.88566 -0.044262 0)
(1.91941 -0.0409275 -1.83049e-19)
(1.95101 -0.0378311 0)
(1.98058 -0.0349587 9.37273e-20)
(2.00825 -0.0322964 0)
(2.03416 -0.0298312 0)
(2.05841 -0.0275507 9.60959e-20)
(2.08112 -0.0254433 9.74776e-20)
(2.10239 -0.0234978 0)
(2.12233 -0.0217036 -9.89775e-20)
(2.14101 -0.020051 0)
(2.15855 -0.0185305 1.00855e-19)
(2.17502 -0.0171332 2.03842e-19)
(2.19049 -0.0158506 0)
(2.20506 -0.0146752 0)
(2.21878 -0.0135996 0)
(2.23173 -0.0126171 0)
(2.24397 -0.0117211 2.12827e-19)
(2.25557 -0.0109057 6.43114e-19)
(2.26657 -0.0101656 0)
(2.27704 -0.00949554 0)
(2.28702 -0.00889082 0)
(2.29657 -0.00834687 -2.2092e-19)
(2.30573 -0.00785943 0)
(2.31454 -0.00742452 0)
(2.32305 -0.00703828 4.5069e-19)
(2.33129 -0.00669704 2.26698e-19)
(2.3393 -0.00639742 2.28388e-19)
(2.34711 -0.00613632 0)
(2.35476 -0.00591084 0)
(2.36228 -0.00571813 2.326e-19)
(2.36969 -0.00555534 -2.33763e-19)
(2.37702 -0.00541974 0)
(2.38429 -0.00530886 0)
(2.39154 -0.00522071 -2.37965e-19)
(2.39877 -0.00515326 7.17626e-19)
(2.40601 -0.00510417 0)
(2.41328 -0.00507129 0)
(2.42059 -0.00505319 2.4312e-19)
(2.42796 -0.00504856 0)
(2.4354 -0.00505555 4.91117e-19)
(2.44292 -0.00507221 -2.46727e-19)
(2.45054 -0.005097 0)
(2.45827 -0.00512894 2.49389e-19)
(2.46611 -0.00516734 5.01094e-19)
(2.47407 -0.0052106 0)
(2.48217 -0.00525698 0)
(2.4904 -0.00530587 -2.54337e-19)
(2.49877 -0.005356 0)
(2.50728 -0.00540525 5.13438e-19)
(2.51593 -0.00545155 0)
(2.52473 -0.00549188 0)
(2.53366 -0.00552259 0)
(2.54272 -0.00553973 0)
(2.55188 -0.00553646 -2.62961e-19)
(2.56112 -0.00550303 -2.64208e-19)
(2.5704 -0.00542758 0)
(2.57967 -0.00529217 0)
(2.58882 -0.00507295 0)
(2.59774 -0.00473487 2.69459e-19)
(2.60623 -0.00423764 0)
(2.61397 -0.00351325 -5.44958e-19)
(2.62056 -0.00240906 5.48165e-19)
(2.62515 -0.00051017 5.51384e-19)
(2.62618 0.00287975 5.53679e-19)
(2.62114 0.00944893 5.57491e-19)
(2.60842 0.0233876 5.62033e-19)
(2.56255 0.0586289 0)
(-0.0913749 0.263921 0)
(-0.172132 0.395181 0)
(-0.27652 0.480301 -4.03403e-20)
(-0.386344 0.541418 -3.34353e-20)
(-0.496641 0.584665 2.88348e-20)
(-0.608933 0.614599 2.59537e-20)
(-0.723762 0.634685 -4.95403e-22)
(-0.840793 0.6474 0)
(-0.959497 0.654478 0)
(-1.07935 0.657155 0)
(-1.19988 0.656352 0)
(-1.32068 0.652782 0)
(-1.44139 0.647016 -5.61249e-20)
(-1.56173 0.639515 0)
(-1.68146 0.63066 1.79296e-20)
(-1.80038 0.620763 1.77968e-20)
(-1.91834 0.610082 0)
(-2.03522 0.598829 0)
(-2.15091 0.587173 0)
(-2.26535 0.575253 0)
(-2.37845 0.563175 1.78583e-20)
(-2.49019 0.551022 0)
(-2.6005 0.538854 -1.80814e-20)
(-2.70935 0.526713 0)
(-2.81672 0.514622 0)
(-2.92256 0.502592 0)
(-3.02684 0.490621 -3.75592e-20)
(-3.12952 0.478695 0)
(-3.23056 0.466793 1.89691e-20)
(-3.32989 0.454884 -3.84201e-20)
(-3.42747 0.442932 0)
(-3.52323 0.43089 0)
(-3.61707 0.418707 0)
(-3.70891 0.406324 1.96379e-20)
(-3.79863 0.393678 1.97373e-20)
(-3.88612 0.380697 0)
(-3.97121 0.367302 0)
(-4.05376 0.353409 -4.00087e-20)
(-4.13356 0.338926 -4.00582e-20)
(-4.2104 0.323754 4.00599e-20)
(-4.28405 0.307787 0)
(-4.35422 0.290912 0)
(-4.42062 0.273013 0)
(-4.48289 0.253966 0)
(-4.54067 0.233647 -3.89238e-20)
(-4.59353 0.21193 -3.88125e-20)
(-4.64102 0.188695 3.8354e-20)
(-4.68264 0.163828 0)
(-4.71785 0.137229 0)
(-4.74607 0.10882 0)
(-4.76671 0.0785451 0)
(-4.77918 0.0463782 -3.47919e-20)
(-4.78279 0.0123301 0)
(-4.77681 -0.0234891 0)
(-4.76076 -0.0608601 -3.13077e-20)
(-4.73399 -0.0995094 -2.91661e-20)
(-4.696 -0.139097 0)
(-4.64633 -0.179229 5.36291e-20)
(-4.58465 -0.219471 -2.424e-20)
(-4.51077 -0.259357 2.24056e-20)
(-4.42461 -0.298408 0)
(-4.32625 -0.336143 0)
(-4.21595 -0.372096 0)
(-4.09411 -0.40583 0)
(-3.96127 -0.436952 1.19007e-20)
(-3.81814 -0.465127 2.13794e-20)
(-3.66554 -0.490083 7.18479e-21)
(-3.5044 -0.511618 -4.75283e-21)
(-3.33573 -0.529607 0)
(-3.16059 -0.543992 1.99595e-21)
(-2.98009 -0.554786 -2.97068e-21)
(-2.79534 -0.562063 -7.93825e-21)
(-2.60744 -0.565955 1.28851e-20)
(-2.41746 -0.566641 0)
(-2.22644 -0.564338 3.52111e-20)
(-2.03534 -0.559288 0)
(-1.84506 -0.551753 -1.48078e-20)
(-1.65642 -0.542014 -1.9615e-20)
(-1.47017 -0.530348 0)
(-1.28695 -0.517026 0)
(-1.10733 -0.502318 -5.00174e-20)
(-0.931791 -0.486477 0)
(-0.760719 -0.469753 -5.84659e-20)
(-0.594417 -0.452395 0)
(-0.433095 -0.434648 6.6677e-20)
(-0.276896 -0.416854 1.43773e-19)
(-0.125915 -0.399164 0)
(0.0202692 -0.381529 0)
(0.159936 -0.363806 0)
(0.293036 -0.345855 8.16208e-20)
(0.419721 -0.327599 0)
(0.540299 -0.309374 8.46503e-20)
(0.655063 -0.291554 0)
(0.764128 -0.274294 0)
(0.867652 -0.257684 -1.79278e-19)
(0.9658 -0.241773 0)
(1.05874 -0.226585 -9.16464e-20)
(1.14667 -0.212128 0)
(1.22975 -0.1984 -9.43491e-20)
(1.30819 -0.185391 0)
(1.38218 -0.173086 0)
(1.45191 -0.161466 0)
(1.51758 -0.150511 -3.00266e-19)
(1.57938 -0.140197 -1.01984e-19)
(1.63751 -0.1305 0)
(1.69214 -0.121396 0)
(1.74346 -0.11286 0)
(1.79166 -0.104866 0)
(1.83689 -0.097388 1.08913e-19)
(1.87933 -0.0904013 -2.19677e-19)
(1.91915 -0.0838809 -1.11796e-19)
(1.95648 -0.077802 2.25633e-19)
(1.99149 -0.0721408 2.28636e-19)
(2.02431 -0.066874 1.16206e-19)
(2.05508 -0.0619791 0)
(2.08394 -0.0574342 2.37701e-19)
(2.11099 -0.0532185 0)
(2.13637 -0.049312 -2.43748e-19)
(2.16018 -0.0456956 -1.23645e-19)
(2.18253 -0.0423512 0)
(2.20353 -0.0392617 2.52745e-19)
(2.22326 -0.0364108 1.28068e-19)
(2.24181 -0.033783 0)
(2.25929 -0.031364 1.30593e-19)
(2.27576 -0.0291399 -3.9684e-19)
(2.2913 -0.0270978 0)
(2.30599 -0.0252259 0)
(2.31989 -0.0235126 0)
(2.33308 -0.0219475 0)
(2.34561 -0.0205203 -2.78338e-19)
(2.35754 -0.0192219 -2.81245e-19)
(2.36893 -0.0180435 0)
(2.37983 -0.016977 0)
(2.39029 -0.0160148 0)
(2.40035 -0.0151494 0)
(2.41007 -0.0143744 0)
(2.41948 -0.0136831 0)
(2.42861 -0.0130696 -2.98739e-19)
(2.43752 -0.012528 -1.66338e-22)
(2.44623 -0.012053 0)
(2.45477 -0.0116397 0)
(2.46318 -0.011283 -3.07845e-19)
(2.47147 -0.0109785 0)
(2.47969 -0.0107215 3.12473e-19)
(2.48786 -0.010508 3.14542e-19)
(2.49599 -0.0103339 0)
(2.5041 -0.0101959 0)
(2.51223 -0.0100907 -3.21229e-19)
(2.52038 -0.0100148 -6.46523e-19)
(2.52857 -0.00996488 0)
(2.53682 -0.00993824 0)
(2.54514 -0.00993244 0)
(2.55355 -0.00994489 -3.32027e-19)
(2.56204 -0.00997308 3.34193e-19)
(2.57065 -0.0100147 0)
(2.57936 -0.0100677 6.76849e-19)
(2.5882 -0.0101306 3.40495e-19)
(2.59717 -0.0102018 -6.85647e-19)
(2.60628 -0.0102788 0)
(2.61552 -0.0103595 0)
(2.62492 -0.0104425 -6.99051e-19)
(2.63446 -0.0105248 -3.51912e-19)
(2.64415 -0.010603 0)
(2.65399 -0.0106727 0)
(2.66398 -0.0107283 0)
(2.6741 -0.0107625 0)
(2.68434 -0.0107656 -7.2682e-19)
(2.69467 -0.0107226 0)
(2.70507 -0.0106141 0)
(2.71547 -0.0104128 0)
(2.7258 -0.0100798 0)
(2.73594 -0.00955772 0)
(2.7457 -0.00876518 0)
(2.75482 -0.00758316 -7.63721e-19)
(2.76286 -0.00579193 0)
(2.76914 -0.00294136 0)
(2.77246 0.00195246 -1.56631e-18)
(2.77094 0.0111485 7.90392e-19)
(2.76558 0.0290381 -8.0182e-19)
(2.74417 0.0661661 8.21351e-19)
(-0.0927119 0.506618 0)
(-0.176981 0.638274 9.22393e-20)
(-0.284005 0.715732 0)
(-0.395872 0.772711 2.67713e-20)
(-0.505618 0.814726 0)
(-0.614613 0.844796 0)
(-0.723771 0.865286 -2.1178e-20)
(-0.833244 0.878091 0)
(-0.942966 0.884714 0)
(-1.0528 0.886344 0)
(-1.1626 0.883938 0)
(-1.27219 0.878279 0)
(-1.38144 0.870014 6.46622e-20)
(-1.4902 0.859681 3.23976e-20)
(-1.59837 0.847729 -3.20832e-20)
(-1.70584 0.83453 0)
(-1.81253 0.820391 0)
(-1.91837 0.805564 0)
(-2.0233 0.790251 0)
(-2.12726 0.774616 0)
(-2.23022 0.758782 3.21186e-20)
(-2.33212 0.742846 3.23233e-20)
(-2.43293 0.726875 -3.25604e-20)
(-2.53261 0.710913 3.28235e-20)
(-2.63112 0.694986 0)
(-2.72843 0.679101 0)
(-2.8245 0.663251 3.3244e-20)
(-2.91927 0.647418 0)
(-3.01269 0.631569 0)
(-3.10471 0.615665 3.42352e-20)
(-3.19525 0.599653 3.49488e-20)
(-3.28425 0.583474 3.524e-20)
(-3.37161 0.567058 0)
(-3.45724 0.550328 0)
(-3.54103 0.533198 -3.60083e-20)
(-3.62284 0.515572 0)
(-3.70253 0.497346 0)
(-3.77993 0.478406 3.61612e-20)
(-3.85485 0.458629 -3.70192e-20)
(-3.92709 0.437882 3.70879e-20)
(-3.9964 0.416022 0)
(-4.06251 0.392899 0)
(-4.12512 0.368353 7.31301e-20)
(-4.1839 0.342217 0)
(-4.23846 0.314321 7.23449e-20)
(-4.28841 0.284493 1.07106e-19)
(-4.33327 0.252567 -1.05946e-19)
(-4.37256 0.218385 7.00747e-20)
(-4.40573 0.181809 0)
(-4.43219 0.142728 0)
(-4.45134 0.101065 6.63322e-20)
(-4.46258 0.0567893 3.16717e-20)
(-4.46518 0.00992315 0)
(-4.45846 -0.0394032 0)
(-4.44183 -0.090912 2.83366e-20)
(-4.41467 -0.144234 5.563e-20)
(-4.37643 -0.198908 0)
(-4.32665 -0.2544 -4.81867e-20)
(-4.265 -0.310108 4.67154e-20)
(-4.19127 -0.365386 -4.34006e-20)
(-4.10538 -0.419557 0)
(-4.00744 -0.471941 0)
(-3.8977 -0.52187 0)
(-3.7766 -0.568717 0)
(-3.64472 -0.611913 0)
(-3.50282 -0.650971 -1.87681e-20)
(-3.35176 -0.685501 0)
(-3.19251 -0.715216 0)
(-3.02611 -0.739937 0)
(-2.85367 -0.759589 -4.96866e-21)
(-2.6763 -0.774194 2.55726e-21)
(-2.49513 -0.783863 6.80251e-21)
(-2.31125 -0.788787 -2.05307e-20)
(-2.12574 -0.789231 1.36711e-20)
(-1.93959 -0.785508 -1.91168e-20)
(-1.75374 -0.777964 0)
(-1.56907 -0.766975 2.68286e-20)
(-1.38634 -0.752945 0)
(-1.20625 -0.736274 0)
(-1.02938 -0.717343 0)
(-0.856256 -0.696545 8.03425e-20)
(-0.687298 -0.674243 -4.27379e-20)