/*--------------------------------*- C++ -*----------------------------------*\
| =========                 |                                                 |
| \\      /  F ield         | OpenFOAM: The Open Source CFD Toolbox           |
|  \\    /   O peration     | Version:  1.4.2                                 |
|   \\  /    A nd           | Web:      http://www.openfoam.org               |
|    \\/     M anipulation  |                                                 |
\*---------------------------------------------------------------------------*/
FoamFile
{
    version     2.0;
    format      ascii;
    class       volScalarField;
    object      epsilon;
    location    "1000";
}
// * * * * * * * * * * * * * * * * * * * * * * * * * * * * * * * * * * * * * //

dimensions      [0 2 -3 0 0 0 0];

internalField   nonuniform List<scalar> 
12225
(
443.026
353.452
290.586
245.345
212.188
187.594
169.245
155.572
145.485
138.21
133.183
129.985
128.3
127.881
128.529
130.083
132.409
135.67
60.1656
73.6156
79.568
83.695
87.7141
92.3539
97.9684
104.74
112.766
122.099
132.759
144.737
157.998
172.477
188.079
204.667
221.994
240.128
26.2958
33.71
37.845
40.6833
42.9299
44.9526
46.9638
49.0916
51.4155
53.9863
56.8361
59.9828
63.4326
67.1795
71.2029
75.4592
79.8588
84.2386
18.7355
22.7235
25.4806
27.3758
28.8178
30.0126
31.0724
32.0707
33.0568
34.0634
35.1122
36.2166
37.3839
38.6159
39.9088
41.252
42.6255
43.9853
16.1687
18.1634
19.9326
21.292
22.3446
23.1852
23.8877
24.5055
25.0724
25.6103
26.1342
26.6543
27.1774
27.7072
28.245
28.7894
29.3367
29.8678
15.2354
16.0864
17.0484
17.9368
18.6891
19.3116
19.8309
20.2729
20.659
21.0059
21.3259
21.6277
21.9172
22.1985
22.474
22.7447
23.0099
23.259
14.8942
15.17
15.5864
16.0521
16.5062
16.9217
17.2896
17.61
17.8892
18.1348
18.3542
18.5533
18.7368
18.9085
19.0708
19.2254
19.3724
19.5054
14.7876
14.838
14.9915
15.2092
15.4537
15.7009
15.9368
16.1542
16.3509
16.5276
16.6861
16.829
16.9589
17.0782
17.1887
17.2919
17.3884
17.4747
14.7441
14.6884
14.7003
14.7662
14.8675
14.9882
15.1163
15.2439
15.3661
15.4805
15.586
15.6827
15.7711
15.8522
15.9269
15.996
16.0601
16.1176
14.7239
14.6134
14.5425
14.5091
14.5063
14.5261
14.5613
14.6058
14.655
14.7057
14.7557
14.8038
14.8493
14.8918
14.9313
14.9681
15.0023
15.0329
14.7149
14.579
14.4658
14.3758
14.3077
14.2585
14.2249
14.2034
14.191
14.1852
14.184
14.1858
14.1895
14.1942
14.1995
14.2049
14.2102
14.2149
14.7109
14.5642
14.4319
14.3142
14.2111
14.1218
14.0449
13.9791
13.9228
13.8744
13.8327
13.7964
13.7645
13.7363
13.711
13.6881
13.6673
13.6482
14.7089
14.5577
14.4176
14.2882
14.1691
14.0601
13.9606
13.8699
13.7873
13.7122
13.6436
13.581
13.5236
13.4708
13.422
13.3769
13.3351
13.2966
14.7076
14.5544
14.4112
14.2772
14.1518
14.0345
13.925
13.8227
13.7273
13.6382
13.5551
13.4774
13.4049
13.3369
13.2732
13.2134
13.1574
13.1056
14.7067
14.5523
14.4076
14.2717
14.1439
14.0235
13.9101
13.8033
13.7025
13.6075
13.5178
13.4331
13.3531
13.2775
13.206
13.1383
13.0744
13.015
14.706
14.5507
14.4052
14.2684
14.1394
14.0178
13.9029
13.7943
13.6915
13.5941
13.5019
13.4143
13.3313
13.2525
13.1775
13.1064
13.0389
12.976
14.7055
14.5497
14.4036
14.2662
14.1367
14.0144
13.8988
13.7894
13.6857
13.5874
13.4941
13.4054
13.3212
13.241
13.1648
13.0923
13.0234
12.9591
14.7053
14.5494
14.403
14.2654
14.1356
14.013
13.8971
13.7873
13.6833
13.5846
13.4909
13.4019
13.3173
13.2369
13.1603
13.0875
13.0184
12.9539
14.7055
14.5497
14.4035
14.2659
14.1362
14.0138
13.8981
13.7886
13.685
13.5868
13.4937
13.4054
13.3216
13.242
13.1665
13.0948
13.0269
12.9637
14.706
14.5507
14.4051
14.2683
14.1396
14.0185
13.9045
13.7971
13.6959
13.6006
13.5107
13.4259
13.346
13.2704
13.1991
13.1318
13.0683
13.0095
14.7068
14.5528
14.4093
14.2755
14.1509
14.0353
13.9279
13.8284
13.7361
13.6504
13.5708
13.4968
13.4279
13.3635
13.3034
13.247
13.1944
13.146
14.7086
14.5589
14.4227
14.3001
14.1905
14.0931
14.0068
13.9303
13.8623
13.8016
13.747
13.6976
13.6526
13.6113
13.5731
13.5376
13.5045
13.4743
14.7142
14.5802
14.4708
14.3853
14.3209
14.2739
14.2405
14.2172
14.2011
14.1898
14.1815
14.175
14.1693
14.1638
14.1581
14.1519
14.1452
14.1383
14.7358
14.6588
14.6349
14.6534
14.7004
14.764
14.8349
14.9068
14.9754
15.0384
15.0944
15.1432
15.1847
15.2195
15.2482
15.2714
15.2899
15.3046
14.8205
14.9298
15.138
15.3947
15.6602
15.9123
16.14
16.3384
16.5073
16.6492
16.7675
16.8658
16.9471
17.0143
17.0699
17.1159
17.154
17.1857
15.1412
15.7855
16.517
17.2068
17.7961
18.2813
18.6742
18.9897
19.2424
19.4453
19.6092
19.7427
19.8526
19.9443
20.0219
20.0885
20.1465
20.1979
16.3189
18.2995
19.9621
21.2351
22.1813
22.8822
23.4044
23.7998
24.1051
24.3458
24.5398
24.7003
24.8371
24.9575
25.0668
25.1689
25.2667
25.3619
20.7544
25.6375
28.6922
30.5982
31.8393
32.6632
33.2222
33.6187
33.9177
34.1615
34.3775
34.5835
34.7911
35.0075
35.2371
35.4822
35.7434
36.0199
43.9611
54.4815
58.7074
60.4208
60.9764
60.9917
60.8477
60.7577
60.7888
60.97
61.3107
61.809
62.4577
63.2466
64.1642
65.1978
66.3329
67.562
332.626
280.253
240.732
210.192
186.153
166.94
151.386
138.653
128.129
119.361
112.006
105.799
100.536
96.0549
92.2271
88.9494
86.1385
83.7249
0.00471706
0.00568123
0.00780764
0.0103917
0.0131177
0.0158074
0.0183819
0.0208202
0.0231377
0.0253849
0.0276545
0.0300774
0.032795
0.0359717
0.039743
0.0441398
0.0492602
0.0552458
0.0622477
0.0703424
0.0796081
0.0900903
0.101879
0.115169
0.130335
0.147865
0.168203
0.190992
0.216883
0.246334
0.279758
0.317555
0.360131
0.4079
0.461291
0.520754
0.586763
0.659822
0.740467
0.829272
0.92685
1.03386
1.15099
1.27902
1.41873
1.57099
1.73674
1.91695
2.1127
2.32514
2.55549
2.8051
3.0754
3.36799
3.68459
4.02711
4.39769
4.79871
5.23289
5.70336
6.21375
6.76834
7.37223
8.03161
8.75399
9.5487
10.4274
11.4048
12.4998
13.7371
15.15
16.7842
18.706
21.0149
23.8674
27.515
32.3639
39.0579
41.9126
44.7923
47.8246
51.0195
54.3831
57.921
61.6386
65.5412
69.6338
73.9213
78.4083
83.0989
87.9972
93.1068
98.4308
103.972
109.734
115.717
121.923
128.355
135.011
141.893
149
156.331
163.884
171.657
179.647
187.849
196.259
204.869
213.671
222.657
231.815
241.132
250.594
260.184
269.883
279.672
289.529
299.432
309.359
319.289
329.203
339.085
348.93
358.747
368.579
378.305
387.886
397.309
406.57
415.664
424.588
433.339
441.917
450.321
458.552
466.613
474.507
482.238
489.81
497.228
504.499
511.627
518.617
525.475
532.205
538.809
545.29
551.649
557.886
563.999
569.986
575.841
581.555
587.117
592.514
597.729
602.741
607.528
612.063
616.317
620.254
623.837
627.022
629.763
632.008
633.704
634.789
635.199
634.865
633.716
631.672
628.665
624.609
619.502
613.329
606.47
599.576
591.693
582.642
568.033
0.0131877
0.0119226
0.0126142
0.0138175
0.015163
0.0165628
0.0180136
0.0195461
0.021216
0.0231058
0.0253345
0.028019
0.0312752
0.0351807
0.0398336
0.0453567
0.0518866
0.0595905
0.0686909
0.079498
0.0922654
0.106903
0.123723
0.143005
0.165027
0.190045
0.218291
0.249942
0.285237
0.324418
0.36772
0.415377
0.467631
0.524732
0.586945
0.654555
0.727867
0.807217
0.892966
0.985509
1.08528
1.19273
1.30839
1.43279
1.56653
1.71024
1.86463
2.03043
2.20846
2.39959
2.60476
2.82501
3.06144
3.31528
3.58789
3.88073
4.19546
4.53391
4.89813
5.29044
5.71347
6.17022
6.66413
7.19916
7.77989
8.41164
9.10059
9.85393
10.6801
11.5887
12.5911
13.6998
14.9287
16.2914
17.7977
19.4456
21.2028
22.9685
24.4962
26.0452
27.6639
29.3611
31.1401
33.0033
34.953
36.9913
39.1202
41.3416
43.6573
46.0689
48.578
51.1858
53.8935
56.7021
59.6122
62.6245
65.7392
68.9564
72.2758
75.6969
79.219
82.8409
86.561
90.3775
94.288
98.2897
102.379
106.553
110.807
115.135
119.532
123.992
128.509
133.074
137.681
142.321
146.986
151.668
156.36
161.055
165.749
170.439
175.129
179.835
184.533
189.183
193.771
198.294
202.749
207.132
211.443
215.68
219.841
223.927
227.938
231.874
235.735
239.523
243.24
246.886
250.465
253.977
257.424
260.808
264.13
267.392
270.594
273.737
276.82
279.844
282.806
285.705
288.538
291.302
293.99
296.598
299.118
301.542
303.861
306.063
308.136
310.065
311.835
313.427
314.823
316
316.936
317.603
317.975
318.021
317.709
317.008
315.885
314.327
312.327
309.988
307.354
304.063
300.489
297.65
0.0243669
0.0201995
0.0197316
0.0202784
0.0212308
0.0224544
0.0239499
0.0257716
0.028017
0.0307703
0.034135
0.0382445
0.0431331
0.0489306
0.0558139
0.0640202
0.0736566
0.0848507
0.0978279
0.112806
0.12997
0.149473
0.171494
0.196219
0.223842
0.254562
0.288575
0.326073
0.367259
0.412346
0.461557
0.515122
0.573285
0.636305
0.704457
0.778041
0.85738
0.942824
1.03476
1.13359
1.23977
1.35378
1.47615
1.60743
1.74824
1.89923
2.06109
2.23458
2.42051
2.61975
2.83324
3.06199
3.30709
3.56974
3.85121
4.15292
4.4764
4.82331
5.1955
5.59497
6.02395
6.48486
6.98039
7.51346
8.08729
8.70538
9.37147
10.0896
10.8638
11.6983
12.597
13.5632
14.5986
15.703
16.872
18.0963
19.3596
20.6412
21.9288
23.2599
24.65
26.1045
27.6261
29.2166
30.8779
32.6116
34.4193
36.3024
38.2623
40.3002
42.4172
44.6142
46.8921
49.2514
51.6927
54.216
56.8216
59.5091
62.2783
65.1283
68.0583
71.0671
74.1532
77.3147
80.5496
83.8554
87.2293
90.6681
94.1682
97.7258
101.337
104.996
108.698
112.439
116.212
120.012
123.832
127.668
131.513
135.363
139.214
143.063
146.909
150.753
154.568
158.339
162.058
165.719
169.321
172.859
176.332
179.737
183.073
186.338
189.531
192.652
195.7
198.674
201.575
204.404
207.16
209.843
212.456
214.997
217.468
219.868
222.199
224.46
226.651
228.771
230.821
232.798
234.703
236.532
238.283
239.954
241.54
243.038
244.442
245.747
246.947
248.033
248.998
249.832
250.524
251.062
251.434
251.625
251.618
251.397
250.943
250.238
249.264
248.016
246.502
244.802
242.952
240.866
238.851
237.908
0.0409762
0.0308784
0.0285588
0.0284425
0.0292891
0.0307817
0.0328902
0.0355887
0.0389232
0.0430022
0.0479374
0.0537826
0.0606118
0.0685942
0.0779084
0.0887344
0.101238
0.115583
0.131935
0.150456
0.171295
0.194596
0.220502
0.24917
0.280769
0.31548
0.353497
0.39502
0.440264
0.489456
0.542835
0.600658
0.663196
0.730738
0.803596
0.882103
0.966619
1.05753
1.15526
1.26024
1.37298
1.49397
1.62378
1.763
1.91227
2.07226
2.24371
2.4274
2.62415
2.83485
3.06047
3.30203
3.56062
3.83741
4.13368
4.45078
4.79016
5.15338
5.54214
5.95821
6.40353
6.88013
7.39018
7.93597
8.51986
9.1443
9.81174
10.5246
11.2851
12.0953
12.9567
13.8702
14.8357
15.8519
16.9165
18.0259
19.1764
20.3661
21.5979
22.8817
24.2235
25.6268
27.0939
28.6266
30.2265
31.8954
33.6346
35.4456
37.3297
39.288
41.3216
43.4312
45.6178
47.8817
50.2233
52.6429
55.1404
57.7155
60.3677
63.0963
65.9002
68.7783
71.7291
74.7507
77.8412
80.9983
84.2193
87.5014
90.8415
94.236
97.6813
101.173
104.707
108.279
111.884
115.515
119.169
122.84
126.521
130.209
133.897
137.582
141.261
144.919
148.54
152.114
155.633
159.091
162.485
165.811
169.066
172.246
175.349
178.372
181.313
184.171
186.944
189.63
192.229
194.741
197.163
199.497
201.742
203.898
205.965
207.942
209.832
211.632
213.343
214.966
216.501
217.946
219.303
220.571
221.749
222.836
223.831
224.733
225.539
226.249
226.858
227.364
227.763
228.05
228.22
228.267
228.184
227.962
227.593
227.066
226.37
225.494
224.43
223.18
221.769
220.244
218.642
216.974
215.507
214.993
0.0632643
0.0440382
0.0392646
0.0385441
0.039544
0.0415916
0.0444877
0.0481988
0.0527742
0.0582357
0.0646052
0.0720216
0.0806295
0.0905858
0.10205
0.115182
0.130132
0.147045
0.16606
0.187305
0.21091
0.237003
0.26572
0.297212
0.331646
0.369207
0.410093
0.45452
0.502719
0.554937
0.611437
0.6725
0.738426
0.809537
0.886175
0.968708
1.05753
1.15306
1.25574
1.36607
1.48454
1.61172
1.74818
1.89456
2.0515
2.21973
2.39999
2.59309
2.79988
3.02129
3.25827
3.51187
3.78317
4.07337
4.38369
4.71546
5.07008
5.44903
5.85388
6.28628
6.74795
7.24067
7.76632
8.32677
8.92396
9.55979
10.2361
10.9547
11.7172
12.5248
13.3788
14.2798
15.2281
16.2237
17.2664
18.356
19.4929
20.6789
21.917
23.2118
24.5668
25.9846
27.4674
29.0171
30.6355
32.3244
34.0853
35.9198
37.8292
39.8148
41.8777
44.019
46.2393
48.5393
50.9194
53.3797
55.9203
58.5408
61.2407
64.0193
66.8755
69.8081
72.8155
75.8961
79.0477
82.2682
85.555
88.9055
92.3166
95.7852
99.3076
102.88
106.498
110.158
113.854
117.581
121.334
125.106
128.892
132.684
136.477
140.264
144.036
147.776
151.47
155.109
158.686
162.194
165.628
168.983
172.255
175.439
178.531
181.529
184.428
187.226
189.921
192.509
194.99
197.361
199.622
201.772
203.809
205.733
207.545
209.243
210.828
212.301
213.661
214.91
216.047
217.075
217.994
218.805
219.509
220.107
220.6
220.989
221.276
221.461
221.545
221.527
221.408
221.187
220.863
220.435
219.9
219.255
218.496
217.617
216.614
215.479
214.219
212.839
211.362
209.822
208.258
206.719
205.427
204.918
0.0917616
0.0601418
0.0523986
0.050873
0.0518644
0.0543393
0.0579559
0.0626264
0.0682435
0.0748152
0.0824522
0.091283
0.101444
0.113077
0.12632
0.141311
0.158181
0.177055
0.198051
0.221288
0.246885
0.274969
0.30568
0.339172
0.375618
0.41521
0.458156
0.504686
0.555044
0.609493
0.668318
0.73182
0.800323
0.874172
0.953736
1.03941
1.1316
1.23078
1.3374
1.45197
1.57504
1.70718
1.84899
2.00113
2.16427
2.33916
2.52657
2.72733
2.9423
3.17243
3.41869
3.68213
3.96387
4.26506
4.58694
4.93082
5.29806
5.6901
6.10844
6.55463
7.03031
7.53712
8.07677
8.65098
9.26148
9.90999
10.5982
11.3276
12.0998
12.9161
13.7779
14.6862
15.642
16.6463
17.7002
18.8052
19.9629
21.1757
22.4466
23.7785
25.1744
26.6368
28.1679
29.7698
31.4447
33.1944
35.0208
36.9257
38.9106
40.9771
43.1265
45.3598
47.6782
50.0823
52.5726
55.1493
57.8127
60.5623
63.3977
66.3181
69.3225
72.4096
75.5779
78.8255
82.1505
85.5506
89.0234
92.5661
96.1758
99.8495
103.584
107.374
111.217
115.108
119.042
123.012
127.013
131.038
135.078
139.127
143.175
147.216
151.23
155.201
159.117
162.969
166.747
170.444
174.055
177.572
180.989
184.303
187.506
190.595
193.565
196.412
199.133
201.724
204.181
206.504
208.69
210.737
212.645
214.411
216.036
217.521
218.863
220.065
221.128
222.051
222.837
223.489
224.007
224.396
224.656
224.793
224.807
224.704
224.486
224.159
223.725
223.187
222.549
221.816
220.988
220.069
219.061
217.964
216.78
215.507
214.147
212.703
211.18
209.589
207.949
206.29
204.652
203.095
201.796
201.13
0.125985
0.0789612
0.0675347
0.0647645
0.0654999
0.0682411
0.0724568
0.0777947
0.0842002
0.091721
0.100441
0.110463
0.121901
0.134873
0.149499
0.165897
0.184182
0.204466
0.226861
0.251483
0.278451
0.307899
0.339971
0.374828
0.412652
0.45364
0.49801
0.545998
0.597862
0.653877
0.714339
0.779566
0.849897
0.925694
1.00734
1.09526
1.18987
1.29165
1.40109
1.51871
1.64508
1.78078
1.92644
2.08272
2.25034
2.43004
2.62262
2.82892
3.04983
3.28631
3.53935
3.81002
4.09941
4.40872
4.73918
5.09209
5.46881
5.87075
6.29941
6.75632
7.24305
7.76125
8.31257
8.89871
9.52137
10.1823
10.8831
11.6255
12.4113
13.2419
14.119
15.0442
16.0192
17.0457
18.1255
19.2607
20.4538
21.7074
23.0244
24.4075
25.8597
27.3835
28.9815
30.6562
32.41
34.2451
36.1637
38.1679
40.2597
42.4408
44.7129
47.0774
49.5354
52.0879
54.7356
57.4789
60.3179
63.2526
66.2824
69.4066
72.6241
75.9335
79.3334
82.8219
86.3969
90.056
93.7968
97.6166
101.512
105.481
109.519
113.623
117.788
122.009
126.281
130.597
134.95
139.332
143.733
148.144
152.555
156.953
161.311
165.617
169.856
174.019
178.095
182.077
185.955
189.723
193.374
196.9
200.295
203.553
206.668
209.635
212.45
215.106
217.602
219.934
222.099
224.094
225.918
227.571
229.05
230.356
231.49
232.451
233.242
233.863
234.318
234.609
234.74
234.716
234.54
234.218
233.754
233.155
232.427
231.579
230.615
229.542
228.367
227.1
225.744
224.306
222.796
221.212
219.567
217.864
216.108
214.305
212.465
210.601
208.731
206.882
205.093
203.422
202.009
201.114
0.163616
0.0994768
0.0837144
0.0794257
0.079742
0.0825726
0.0870216
0.0928197
0.0998737
0.108179
0.117781
0.12875
0.141174
0.155152
0.170785
0.188177
0.207434
0.228664
0.251978
0.277493
0.305336
0.335645
0.368571
0.404284
0.442967
0.484826
0.530081
0.578975
0.631771
0.68875
0.750217
0.816497
0.887939
0.964914
1.04782
1.13708
1.23313
1.33647
1.44758
1.56702
1.69534
1.83316
1.9811
2.13987
2.31016
2.49276
2.68847
2.89814
3.1227
3.36309
3.62035
3.89553
4.18978
4.50428
4.84029
5.19913
5.58216
5.99084
6.42666
6.89118
7.38602
7.91283
8.47335
9.06931
9.70253
10.3748
11.0881
11.8441
12.6449
13.4924
14.3887
15.3357
16.3356
17.3908
18.5037
19.6768
20.9131
22.2154
23.5869
25.0305
26.5494
28.1465
29.8248
31.5872
33.4363
35.3751
37.406
39.5317
41.7543
44.0762
46.4993
49.0253
51.6557
54.3917
57.2343
60.184
63.2411
66.4055
69.6768
73.0542
76.5367
80.1229
83.811
87.5992
91.4852
95.4665
99.5407
103.705
107.956
112.291
116.706
121.197
125.759
130.388
135.078
139.821
144.608
149.43
154.276
159.134
163.992
168.825
173.606
178.322
182.96
187.508
191.955
196.29
200.505
204.589
208.536
212.335
215.98
219.463
222.776
225.914
228.869
231.638
234.214
236.594
238.774
240.752
242.525
244.092
245.451
246.603
247.547
248.285
248.819
249.15
249.282
249.219
248.967
248.53
247.915
247.129
246.179
245.074
243.822
242.436
240.924
239.294
237.559
235.73
233.817
231.828
229.781
227.682
225.541
223.368
221.173
218.966
216.76
214.569
212.412
210.314
208.31
206.452
204.849
203.686
0.202516
0.120545
0.1001
0.094152
0.0937925
0.0963761
0.100952
0.107112
0.114682
0.123603
0.133879
0.145551
0.158684
0.173358
0.189661
0.20769
0.227546
0.249336
0.273176
0.299187
0.327502
0.358264
0.391631
0.427773
0.46688
0.509156
0.554825
0.604129
0.657333
0.71472
0.776595
0.843288
0.91515
0.992556
1.07591
1.16563
1.26217
1.36603
1.4777
1.59773
1.7267
1.86522
2.01395
2.17357
2.34481
2.52845
2.72531
2.93627
3.16226
3.40425
3.66327
3.94042
4.23687
4.55382
4.89256
5.25445
5.6409
6.05339
6.49349
6.96282
7.46306
7.99599
8.56343
9.16727
9.80948
10.4921
11.2171
11.9869
12.8035
13.6693
14.5868
15.5584
16.5869
17.675
18.8257
20.0421
21.3274
22.6849
24.1182
25.6307
27.2259
28.9072
30.678
32.5418
34.5018
36.5614
38.7235
40.9913
43.3674
45.8547
48.4553
51.1715
54.0051
56.9575
60.03
63.2233
66.5378
69.9734
73.5298
77.2061
81.0012
84.9135
88.9411
93.082
97.3338
101.694
106.159
110.727
115.394
120.156
125.011
129.954
134.98
140.083
145.258
150.496
155.787
161.12
166.481
171.856
177.229
182.557
187.822
193.01
198.104
203.093
207.964
212.705
217.305
221.754
226.042
230.158
234.094
237.841
241.39
244.733
247.862
250.772
253.457
255.912
258.132
260.114
261.855
263.354
264.609
265.62
266.387
266.912
267.196
267.242
267.055
266.64
266.002
265.15
264.091
262.834
261.387
259.762
257.972
256.031
253.951
251.741
249.419
247.004
244.506
241.941
239.326
236.674
234
231.318
228.642
225.986
223.366
220.797
218.299
215.896
213.618
211.511
209.659
208.198
0.24034
0.141175
0.116016
0.108112
0.106885
0.109199
0.113838
0.120258
0.128206
0.137568
0.148313
0.160455
0.17404
0.189132
0.205814
0.224176
0.24432
0.266357
0.290404
0.316589
0.345048
0.37593
0.409392
0.445606
0.484761
0.527058
0.572719
0.621984
0.675113
0.732388
0.794113
0.860613
0.932238
1.00936
1.09239
1.18174
1.27787
1.38126
1.49243
1.61192
1.74031
1.87823
2.02632
2.18529
2.35588
2.53886
2.73509
2.94544
3.17085
3.41234
3.67095
3.94781
4.24412
4.56113
4.90017
5.26264
5.65004
6.06392
6.50593
6.97779
7.48133
8.01844
8.59113
9.20147
9.85165
10.544
11.2808
12.0646
12.8981
13.7839
14.7249
15.7242
16.7849
17.9103
19.104
20.3695
21.7106
23.1312
24.6352
26.2266
27.9096
29.688
31.566
33.5474
35.6362
37.8363
40.1512
42.5845
45.1396
47.8196
50.6273
53.5653
56.6356
59.8402
63.1803
66.6568
70.2703
74.0207
77.9075
81.9296
86.0858
90.3743
94.7929
99.3392
104.01
108.804
113.716
118.744
123.883
129.132
134.484
139.937
145.486
151.124
156.844
162.638
168.494
174.399
180.337
186.289
192.225
198.097
203.893
209.594
215.187
220.657
225.989
231.171
236.19
241.034
245.691
250.151
254.403
258.438
262.243
265.81
269.13
272.197
275.004
277.545
279.816
281.811
283.529
284.967
286.123
286.997
287.59
287.902
287.936
287.697
287.19
286.419
285.392
284.118
282.607
280.87
278.917
276.759
274.416
271.905
269.239
266.434
263.509
260.485
257.378
254.207
250.994
247.757
244.515
241.285
238.087
234.937
231.853
228.856
225.964
223.2
220.593
218.18
216.026
214.239
0.27503
0.16011
0.130343
0.120668
0.118696
0.120753
0.125399
0.131976
0.14016
0.149792
0.160809
0.173205
0.187009
0.202278
0.219088
0.23753
0.257708
0.279734
0.303733
0.329833
0.358173
0.3889
0.422171
0.458155
0.497034
0.539004
0.584283
0.633103
0.685719
0.742407
0.803465
0.869213
0.939996
1.01618
1.09817
1.18639
1.28128
1.38332
1.49303
1.61097
1.7377
1.87384
2.02007
2.17708
2.34562
2.52649
2.72054
2.92867
3.15184
3.3911
3.64751
3.92226
4.21658
4.53178
4.86926
5.2305
5.61708
6.03068
6.47305
6.94609
7.45176
7.99216
8.56952
9.18616
9.84456
10.5473
11.2972
12.097
12.9499
13.8591
14.8278
15.8598
16.9587
18.1283
19.3729
20.6966
22.1039
23.5992
25.1871
26.8723
28.6596
30.5535
32.5587
34.68
36.9218
39.2885
41.7845
44.4139
47.1806
50.0881
53.1397
56.3383
59.6864
63.186
66.8387
70.6454
74.6065
78.7218
82.9905
87.4114
91.9826
96.702
101.567
106.575
111.722
117.005
122.421
127.966
133.636
139.426
145.333
151.352
157.478
163.704
170.025
176.429
182.905
189.436
196.003
202.581
209.106
215.554
221.908
228.15
234.265
240.237
246.049
251.688
257.139
262.39
267.427
272.238
276.813
281.139
285.203
288.995
292.506
295.728
298.654
301.277
303.592
305.595
307.282
308.651
309.702
310.43
310.839
310.93
310.707
310.174
309.337
308.201
306.774
305.069
303.097
300.87
298.401
295.704
292.8
289.707
286.445
283.03
279.485
275.833
272.096
268.296
264.459
260.607
256.763
252.949
249.187
245.5
241.907
238.431
235.094
231.917
228.926
226.154
223.651
221.51
0.304719
0.176139
0.142779
0.131692
0.129091
0.130894
0.135485
0.142111
0.15039
0.160127
0.171233
0.183685
0.197503
0.21274
0.229468
0.247782
0.267788
0.289602
0.313349
0.339161
0.367172
0.397526
0.430373
0.465874
0.504203
0.545549
0.59012
0.63814
0.689857
0.745537
0.805472
0.869975
0.939384
1.01406
1.0944
1.18082
1.27376
1.37371
1.48117
1.5967
1.72086
1.8543
1.99767
2.15168
2.3171
2.49473
2.68545
2.89018
3.10992
3.34573
3.59875
3.8702
4.16139
4.47372
4.80867
5.16783
5.55292
5.96575
6.40827
6.88254
7.39077
7.93532
8.51868
9.14353
9.81269
10.5292
11.2961
12.1169
12.9952
13.9347
14.9393
16.0133
17.161
18.3871
19.6963
21.0937
22.5843
24.1735
25.8665
27.669
29.5862
31.6237
33.7868
36.0808
38.5109
41.0823
43.7997
46.6679
49.6913
52.8737
56.2189
59.7301
63.4098
67.2602
71.2828
75.4786
79.8477
84.3895
89.1025
93.9849
99.0342
104.248
109.622
115.154
120.839
126.674
132.653
138.774
145.031
151.42
157.935
164.573
171.328
178.194
185.162
192.223
199.363
206.564
213.802
221.014
228.144
235.179
242.099
248.887
255.525
261.997
268.285
274.375
280.249
285.895
291.298
296.446
301.325
305.926
310.23
314.226
317.904
321.258
324.278
326.959
329.294
331.279
332.911
334.187
335.107
335.667
335.869
335.718
335.217
334.371
333.186
331.67
329.832
327.684
325.24
322.512
319.517
316.272
312.796
309.113
305.243
301.207
297.029
292.735
288.351
283.904
279.42
274.927
270.452
266.022
261.661
257.396
253.252
249.252
245.421
241.782
238.358
235.179
232.284
229.76
0.330718
0.190147
0.153628
0.141287
0.138097
0.139614
0.144073
0.150637
0.158875
0.168563
0.179592
0.191928
0.205585
0.220613
0.237089
0.255109
0.274783
0.29623
0.319575
0.344945
0.372469
0.402282
0.434522
0.469341
0.506901
0.54738
0.590977
0.637907
0.688406
0.742735
0.801176
0.864035
0.931644
1.00436
1.08257
1.16668
1.25715
1.35444
1.45907
1.57159
1.69258
1.82268
1.96255
2.11293
2.27459
2.44836
2.63515
2.83593
3.05173
3.28367
3.53298
3.80095
4.08898
4.3986
4.73142
5.08921
5.47384
5.88735
6.33192
6.80989
7.32377
7.87626
8.47026
9.10884
9.79532
10.5332
11.3263
12.1785
13.0941
14.0775
15.1335
16.2669
17.483
18.7872
20.1851
21.6828
23.2861
25.0014
26.8349
28.7928
30.8817
33.1075
35.4765
37.9944
40.6672
43.5003
46.4993
49.6692
53.0147
56.5399
60.2487
64.1442
68.229
72.5051
76.9737
81.6354
86.4899
91.536
96.7711
102.192
107.794
113.576
119.532
125.658
131.95
138.402
145.009
151.766
158.669
165.711
172.888
180.193
187.622
195.167
202.821
210.574
218.41
226.312
234.221
242.045
249.767
257.369
264.834
272.142
279.275
286.216
292.947
299.45
305.709
311.71
317.436
322.875
328.014
332.846
337.341
341.492
345.291
348.727
351.795
354.485
356.793
358.714
360.244
361.383
362.129
362.481
362.443
362.016
361.206
360.019
358.461
356.541
354.269
351.659
348.725
345.481
341.945
338.137
334.079
329.795
325.307
320.64
315.818
310.87
305.825
300.714
295.566
290.413
285.285
280.211
275.222
270.348
265.616
261.054
256.689
252.544
248.645
245.018
241.695
238.761
0.353624
0.202506
0.163113
0.149607
0.145829
0.147017
0.151263
0.157662
0.165739
0.175245
0.186057
0.198135
0.211489
0.226173
0.242266
0.25987
0.279099
0.300075
0.322916
0.347744
0.374675
0.403832
0.43534
0.469337
0.505974
0.545417
0.587854
0.633489
0.682553
0.735297
0.791996
0.852953
0.918493
0.988972
1.06477
1.14631
1.23402
1.32839
1.42994
1.53922
1.65684
1.78344
1.91971
2.06642
2.22436
2.39442
2.57756
2.7748
2.98727
3.21618
3.46286
3.72874
4.01538
4.32447
4.65786
5.01753
5.40564
5.82453
6.27674
6.765
7.29225
7.86168
8.47672
9.14105
9.85865
10.6338
11.4709
12.3749
13.3508
14.404
15.5401
16.765
18.0849
19.5063
21.0358
22.6806
24.4476
26.3443
28.3778
30.5555
32.8848
35.3725
38.0252
40.8487
43.8494
47.0331
50.4055
53.9718
57.7364
61.7034
65.8761
70.2574
74.8491
79.6527
84.6684
89.8963
95.3356
100.985
106.838
112.89
119.135
125.57
132.189
138.987
145.957
153.094
160.391
167.845
175.447
183.192
191.073
199.085
207.219
215.47
223.83
232.286
240.825
249.423
257.92
266.305
274.562
282.672
290.618
298.38
305.94
313.278
320.378
327.22
333.788
340.065
346.036
351.685
357.001
361.971
366.577
370.807
374.65
378.096
381.138
383.767
385.979
387.769
389.134
390.073
390.587
390.677
390.344
389.592
388.428
386.856
384.885
382.524
379.786
376.684
373.233
369.449
365.351
360.962
356.306
351.407
346.289
340.979
335.504
329.892
324.176
318.39
312.567
306.74
300.944
295.21
289.573
284.066
278.72
273.567
268.637
263.955
259.548
255.441
251.659
248.292
0.374258
0.213598
0.171493
0.15687
0.1525
0.15332
0.157295
0.163452
0.171281
0.180511
0.191009
0.202729
0.215686
0.229935
0.245564
0.262683
0.28141
0.301864
0.324159
0.348402
0.374698
0.403152
0.433876
0.466994
0.502645
0.540986
0.582193
0.626464
0.674023
0.725117
0.780019
0.83903
0.902479
0.970723
1.04415
1.12318
1.20827
1.29992
1.39866
1.50507
1.61979
1.7435
1.87694
2.02092
2.17632
2.34411
2.52532
2.72111
2.93273
3.16157
3.40914
3.6771
3.96725
4.2816
4.62231
4.99175
5.39254
5.82751
6.29973
6.81257
7.36962
7.97479
8.63232
9.3468
10.1232
10.9668
11.8832
12.8786
13.9592
15.1317
16.4029
17.7796
19.2694
20.88
22.6195
24.4961
26.518
28.6936
31.0313
33.5393
36.2258
39.0987
42.1644
45.4264
48.8913
52.565
56.4526
60.5585
64.8863
69.439
74.2187
79.2271
84.4646
89.931
95.6251
101.545
107.691
114.063
120.65
127.436
134.421
141.599
148.964
156.508
164.224
172.106
180.146
188.34
196.681
205.16
213.769
222.5
231.345
240.297
249.347
258.478
267.662
276.758
285.734
294.571
303.251
311.754
320.064
328.161
336.027
343.642
350.988
358.047
364.801
371.234
377.328
383.069
388.444
393.439
398.043
402.24
406.017
409.366
412.278
414.746
416.764
418.328
419.437
420.09
420.292
420.042
419.343
418.198
416.614
414.598
412.16
409.309
406.059
402.423
398.418
394.062
389.374
384.378
379.103
373.574
367.814
361.85
355.711
349.428
343.035
336.569
330.066
323.561
317.091
310.69
304.396
298.244
292.272
286.512
280.998
275.759
270.822
266.214
261.955
258.138
0.393887
0.223898
0.179104
0.163388
0.158439
0.158891
0.162587
0.168485
0.176043
0.18497
0.195123
0.206455
0.218983
0.232773
0.247924
0.264555
0.282791
0.302748
0.324529
0.348228
0.373932
0.401734
0.431734
0.464044
0.498794
0.536133
0.576232
0.619286
0.665519
0.71518
0.76855
0.82594
0.887692
0.95418
1.02581
1.10304
1.18634
1.27626
1.37338
1.47833
1.59182
1.71461
1.84754
1.99154
2.14762
2.31689
2.50061
2.70013
2.91695
3.15278
3.40945
3.68904
3.99383
4.32631
4.68926
5.08575
5.51915
5.99319
6.51193
7.07979
7.70151
8.38211
9.12718
9.94277
10.8355
11.8122
12.8805
14.0482
15.3237
16.7157
18.2322
19.8807
21.6703
23.6103
25.71
27.9786
30.4252
33.0586
35.8875
38.9203
42.1655
45.6337
49.3304
53.2468
57.3922
61.7718
66.3889
71.2456
76.343
81.6817
87.2618
93.0827
99.1424
105.438
111.966
118.721
125.699
132.898
140.308
147.92
155.728
163.722
171.893
180.233
188.732
197.384
206.182
215.125
224.202
233.404
242.717
252.131
261.635
271.221
280.872
290.527
300.078
309.499
318.77
327.87
336.782
345.488
353.971
362.213
370.195
377.899
385.306
392.397
399.156
405.565
411.607
417.268
422.534
427.392
431.829
435.832
439.39
442.493
445.133
447.304
449.001
450.221
450.961
451.222
451.007
450.317
449.157
447.532
445.447
442.912
439.937
436.532
432.713
428.492
423.888
418.919
413.605
407.973
402.056
395.88
389.465
382.838
376.029
369.071
362
354.855
347.676
340.499
333.359
326.296
319.348
312.555
305.956
299.587
293.486
287.684
282.21
277.094
272.349
268.075
0.413776
0.233952
0.186386
0.169616
0.164158
0.164331
0.167839
0.173574
0.180952
0.189661
0.199547
0.21056
0.222724
0.236122
0.250875
0.267119
0.284985
0.304581
0.326001
0.349325
0.37463
0.402
0.43153
0.463328
0.497522
0.534261
0.57372
0.6161
0.661638
0.710603
0.763301
0.820075
0.881305
0.947412
1.01886
1.09616
1.17987
1.27061
1.36908
1.47604
1.59235
1.71894
1.85687
2.00731
2.17156
2.35108
2.5475
2.76266
2.99856
3.25752
3.54211
3.85523
4.20012
4.58035
4.99987
5.46315
5.97518
6.54146
7.16809
7.86179
8.6296
9.47803
10.4152
11.4499
12.5914
13.8493
15.2339
16.7557
18.4261
20.259
22.262
24.438
26.7994
29.3565
32.1185
35.0939
38.2905
41.7154
45.3748
49.2741
53.418
57.811
62.4546
67.3463
72.4866
77.8756
83.5119
89.3932
95.5166
101.879
108.478
115.31
122.371
129.654
137.153
144.859
152.767
160.87
169.164
177.646
186.303
195.123
204.096
213.21
222.456
231.825
241.313
250.932
260.666
270.492
280.394
290.355
300.35
310.364
320.268
330.007
339.583
348.99
358.213
367.237
376.047
384.628
392.963
401.035
408.827
416.32
423.496
430.338
436.828
442.949
448.686
454.022
458.945
463.44
467.497
471.103
474.247
476.92
479.115
480.826
482.049
482.78
483.018
482.764
482.021
480.791
479.079
476.891
474.234
471.117
467.551
463.547
459.121
454.287
449.063
443.467
437.52
431.249
424.681
417.843
410.762
403.466
395.986
388.355
380.611
372.796
364.957
357.124
349.334
341.626
334.043
326.626
319.416
312.454
305.779
299.426
293.425
287.809
282.584
277.857
0.43646