/*--------------------------------*- C++ -*----------------------------------*\
| =========                 |                                                 |
| \\      /  F ield         | OpenFOAM: The Open Source CFD Toolbox           |
|  \\    /   O peration     | Version:  1.4.2                                 |
|   \\  /    A nd           | Web:      http://www.openfoam.org               |
|    \\/     M anipulation  |                                                 |
\*---------------------------------------------------------------------------*/
FoamFile
{
    version     2.0;
    format      ascii;
    class       volScalarField;
    object      p;
    location    "1000";
}
// * * * * * * * * * * * * * * * * * * * * * * * * * * * * * * * * * * * * * //

dimensions      [0 2 -2 0 0 0 0];

internalField   nonuniform List<scalar> 
12225
(
-5.05458
-5.89218
-6.14148
-6.23907
-6.3448
-6.4485
-6.54009
-6.62324
-6.70191
-6.77785
-6.8521
-6.92579
-7.00021
-7.07704
-7.15867
-7.24916
-7.35526
-7.50365
-5.22092
-5.89933
-6.13947
-6.24066
-6.34541
-6.44741
-6.53781
-6.62003
-6.69782
-6.7729
-6.84631
-6.91917
-6.99275
-7.06866
-7.14918
-7.23794
-7.34108
-7.47445
-5.39996
-5.89529
-6.12869
-6.23835
-6.34327
-6.44384
-6.53355
-6.61544
-6.69289
-6.76756
-6.8405
-6.91278
-6.98557
-7.06028
-7.13872
-7.22331
-7.31625
-7.41917
-5.55711
-5.91285
-6.1316
-6.24563
-6.34899
-6.44707
-6.53543
-6.61656
-6.69339
-6.76745
-6.83975
-6.91125
-6.98296
-7.05599
-7.13155
-7.21077
-7.29334
-7.37629
-5.68693
-5.94423
-6.1422
-6.25679
-6.35776
-6.45297
-6.53953
-6.61945
-6.69523
-6.76827
-6.8395
-6.90975
-6.97984
-7.05053
-7.12242
-7.19564
-7.26858
-7.33699
-5.79997
-5.98395
-6.15774
-6.2698
-6.36763
-6.45975
-6.54432
-6.62289
-6.69749
-6.76935
-6.8393
-6.90804
-6.97616
-7.04409
-7.11195
-7.17923
-7.24385
-7.30188
-5.90019
-6.02947
-6.17799
-6.28467
-6.37843
-6.46694
-6.54907
-6.62593
-6.6991
-6.76957
-6.83802
-6.90497
-6.97082
-7.03571
-7.09941
-7.16108
-7.21872
-7.26921
-5.97629
-6.07125
-6.19893
-6.29905
-6.38858
-6.47353
-6.55315
-6.62815
-6.69974
-6.76871
-6.83559
-6.90076
-6.96443
-7.02658
-7.08681
-7.14419
-7.19701
-7.24282
-6.03725
-6.10926
-6.2195
-6.31321
-6.39853
-6.48004
-6.55714
-6.63022
-6.70014
-6.76753
-6.83279
-6.89617
-6.95775
-7.01738
-7.0746
-7.12852
-7.17773
-7.22023
-6.09725
-6.15076
-6.24364
-6.32988
-6.41024
-6.48773
-6.56183
-6.63257
-6.70045
-6.7659
-6.82919
-6.89042
-6.94959
-7.00646
-7.06054
-7.11104
-7.15689
-7.19653
-6.15548
-6.19474
-6.27124
-6.34904
-6.42372
-6.49664
-6.56722
-6.63514
-6.70057
-6.76371
-6.82466
-6.88344
-6.93992
-6.99384
-7.04472
-7.09194
-7.13471
-7.17189
-6.21106
-6.23988
-6.30174
-6.37048
-6.4389
-6.50675
-6.57329
-6.63791
-6.70044
-6.76087
-6.81914
-6.87515
-6.92873
-6.97957
-7.02729
-7.07141
-7.11139
-7.14644
-6.26318
-6.28458
-6.33405
-6.39366
-6.45544
-6.51785
-6.57991
-6.64076
-6.69998
-6.75731
-6.81257
-6.86557
-6.91607
-6.9638
-7.00845
-7.04967
-7.08714
-7.12033
-6.31081
-6.32708
-6.36657
-6.41755
-6.47263
-6.52944
-6.58671
-6.64346
-6.69901
-6.75294
-6.80494
-6.85474
-6.90209
-6.94674
-6.98846
-7.02702
-7.06222
-7.09375
-6.35256
-6.36532
-6.39715
-6.44055
-6.48927
-6.54059
-6.59304
-6.64552
-6.69722
-6.74757
-6.79618
-6.84272
-6.88695
-6.92864
-6.96761
-7.00374
-7.03691
-7.06694
-6.3864
-6.39682
-6.42313
-6.46041
-6.50357
-6.5499
-6.59783
-6.64619
-6.69409
-6.74091
-6.78618
-6.82957
-6.87082
-6.90974
-6.94621
-6.98016
-7.01151
-7.04017
-6.40931
-6.4183
-6.44106
-6.47405
-6.51299
-6.55532
-6.59946
-6.64425
-6.68879
-6.73241
-6.77466
-6.81519
-6.85378
-6.89026
-6.92455
-6.95659
-6.98636
-7.01382
-6.41626
-6.42473
-6.44618
-6.47734
-6.51421
-6.55433
-6.59619
-6.63866
-6.68088
-6.72222
-6.76224
-6.80064
-6.83722
-6.87184
-6.90445
-6.93502
-6.96353
-6.98998
-6.40667
-6.41558
-6.43802
-6.47
-6.50718
-6.54715
-6.5885
-6.63018
-6.67141
-6.71161
-6.75042
-6.78758
-6.82294
-6.8564
-6.88793
-6.91754
-6.94522
-6.97097
-6.38453
-6.39489
-6.42047
-6.45549
-6.49486
-6.53624
-6.57842
-6.62047
-6.6617
-6.70163
-6.73999
-6.77659
-6.81133
-6.84416
-6.87507
-6.90409
-6.93124
-6.95653
-6.35236
-6.36553
-6.39667
-6.43673
-6.47965
-6.52352
-6.56743
-6.61058
-6.65241
-6.69261
-6.73099
-6.76744
-6.80193
-6.83444
-6.86501
-6.89368
-6.92049
-6.94546
-6.31135
-6.32945
-6.36913
-6.41597
-6.46337
-6.51039
-6.55655
-6.60119
-6.64396
-6.6847
-6.72336
-6.7599
-6.79436
-6.82675
-6.85714
-6.8856
-6.91217
-6.93688
-6.26172
-6.28825
-6.34011
-6.39504
-6.44731
-6.4978
-6.54643
-6.59272
-6.63653
-6.67793
-6.71697
-6.75373
-6.78827
-6.82067
-6.851
-6.87934
-6.90575
-6.93023
-6.20287
-6.24353
-6.31173
-6.3753
-6.43233
-6.48633
-6.53743
-6.58531
-6.63014
-6.67219
-6.71166
-6.74867
-6.78336
-6.81582
-6.84616
-6.87445
-6.90074
-6.925
-6.13353
-6.19716
-6.28593
-6.35767
-6.41895
-6.47628
-6.52968
-6.57896
-6.62467
-6.6673
-6.70714
-6.7444
-6.77925
-6.81183
-6.84224
-6.87055
-6.89679
-6.92087
-6.05189
-6.15143
-6.26417
-6.3425
-6.40717
-6.46754
-6.52295
-6.57339
-6.6198
-6.6629
-6.70306
-6.74055
-6.77558
-6.80832
-6.83888
-6.86734
-6.89367
-6.91767
-5.95446
-6.10995
-6.24761
-6.32965
-6.39689
-6.46004
-6.5172
-6.5686
-6.61563
-6.65919
-6.69971
-6.73749
-6.77279
-6.8058
-6.83667
-6.86548
-6.89217
-6.91646
-5.82957
-6.07854
-6.23881
-6.31997
-6.38874
-6.45439
-6.51306
-6.56523
-6.61277
-6.65671
-6.69752
-6.73554
-6.77104
-6.80426
-6.83541
-6.86462
-6.89187
-6.91696
-5.66859
-6.06774
-6.24592
-6.32101
-6.38942
-6.45645
-6.51579
-6.56815
-6.61576
-6.65975
-6.7006
-6.73863
-6.77416
-6.80745
-6.83875
-6.86833
-6.8964
-6.92344
-5.50568
-6.05119
-6.24591
-6.31832
-6.38729
-6.45569
-6.51579
-6.56854
-6.61644
-6.66071
-6.70181
-6.7401
-6.77587
-6.80942
-6.84102
-6.87106
-6.90004
-6.93203
-7.56539
-7.56533
-7.56529
-7.56529
-7.56532
-7.56541
-7.56553
-7.56571
-7.56592
-7.56616
-7.56642
-7.5667
-7.567
-7.56731
-7.56763
-7.56797
-7.56832
-7.5687
-7.5691
-7.56954
-7.57001
-7.57054
-7.57112
-7.57175
-7.57244
-7.57321
-7.57407
-7.57503
-7.5761
-7.57729
-7.57863
-7.58013
-7.58181
-7.5837
-7.58582
-7.58819
-7.59083
-7.59378
-7.59704
-7.60065
-7.60461
-7.60895
-7.61369
-7.61884
-7.62441
-7.63042
-7.63689
-7.64383
-7.65125
-7.65916
-7.66757
-7.6765
-7.68596
-7.69596
-7.70651
-7.71762
-7.7293
-7.74156
-7.75441
-7.76786
-7.78191
-7.79657
-7.81185
-7.82774
-7.84425
-7.86137
-7.8791
-7.89743
-7.91636
-7.93585
-7.95591
-7.9765
-7.9976
-8.0192
-8.04128
-8.06393
-8.08729
-8.11139
-8.13573
-8.15997
-8.18423
-8.20848
-8.23267
-8.25671
-8.28052
-8.304
-8.32705
-8.34955
-8.37137
-8.3924
-8.4125
-8.43152
-8.44931
-8.46572
-8.48059
-8.49376
-8.50504
-8.51426
-8.52123
-8.52576
-8.52764
-8.52666
-8.52261
-8.51525
-8.50434
-8.48963
-8.47083
-8.44767
-8.41986
-8.38708
-8.349
-8.30529
-8.2556
-8.19959
-8.13691
-8.06723
-7.9902
-7.90552
-7.81289
-7.71206
-7.60279
-7.4849
-7.35818
-7.22245
-7.07761
-6.92368
-6.76071
-6.58879
-6.40801
-6.21852
-6.02048
-5.81406
-5.5995
-5.37703
-5.14692
-4.90948
-4.66503
-4.41392
-4.15653
-3.89326
-3.62453
-3.35077
-3.07243
-2.79001
-2.50396
-2.21481
-1.92305
-1.62921
-1.33381
-1.03737
-0.740424
-0.443493
-0.147099
0.148243
0.442023
0.73374
1.02291
1.30907
1.59176
1.87056
2.14506
2.41488
2.67968
2.93914
3.19297
3.44093
3.6828
3.91842
4.14764
4.37037
4.58654
4.79617
4.99928
5.196
5.38674
5.57181
5.75259
5.92865
6.10805
6.27625
-7.5655
-7.56544
-7.5654
-7.5654
-7.56544
-7.56553
-7.56566
-7.56582
-7.56601
-7.56621
-7.56643
-7.56666
-7.5669
-7.56715
-7.56742
-7.56769
-7.56799
-7.5683
-7.56864
-7.569
-7.5694
-7.56985
-7.57034
-7.57088
-7.57147
-7.57214
-7.57287
-7.5737
-7.57463
-7.57568
-7.57686
-7.5782
-7.57972
-7.58144
-7.58337
-7.58556
-7.58801
-7.59075
-7.5938
-7.59718
-7.60092
-7.60502
-7.6095
-7.61438
-7.61968
-7.62541
-7.63158
-7.6382
-7.64529
-7.65286
-7.66092
-7.66949
-7.67857
-7.68818
-7.69832
-7.70902
-7.72028
-7.7321
-7.74451
-7.75751
-7.77111
-7.78532
-7.80014
-7.81558
-7.83165
-7.84835
-7.86568
-7.88363
-7.90221
-7.9214
-7.94121
-7.96161
-7.98258
-8.00409
-8.02609
-8.04853
-8.07123
-8.09395
-8.11695
-8.14045
-8.16411
-8.18782
-8.21149
-8.23504
-8.25838
-8.28142
-8.30404
-8.32614
-8.34759
-8.36827
-8.38805
-8.40679
-8.42434
-8.44055
-8.45526
-8.4683
-8.47951
-8.48871
-8.49572
-8.50034
-8.50237
-8.50162
-8.49786
-8.49087
-8.48042
-8.46625
-8.44809
-8.42569
-8.39873
-8.36692
-8.32994
-8.28746
-8.23913
-8.18461
-8.12355
-8.05562
-7.98047
-7.89779
-7.80728
-7.70868
-7.60174
-7.48629
-7.36208
-7.22887
-7.08657
-6.93519
-6.77479
-6.60545
-6.42726
-6.24037
-6.04491
-5.84107
-5.62907
-5.40914
-5.18154
-4.94658
-4.70456
-4.45584
-4.20079
-3.93981
-3.67329
-3.40169
-3.12545
-2.84503
-2.56092
-2.27362
-1.98362
-1.69145
-1.39761
-1.10264
-0.80705
-0.511367
-0.216104
0.0782277
0.371123
0.662086
0.950638
1.23631
1.51867
1.79728
2.07174
2.34168
2.60674
2.86662
3.12103
3.36972
3.6125
3.84917
4.07961
4.30374
4.52148
4.73289
4.93802
5.137
5.33037
5.51842
5.7028
5.88234
6.06689
6.23667
-7.56547
-7.56542
-7.56538
-7.56539
-7.56545
-7.56556
-7.5657
-7.56585
-7.56602
-7.5662
-7.56637
-7.56656
-7.56675
-7.56694
-7.56713
-7.56734
-7.56757
-7.56782
-7.56809
-7.56838
-7.56871
-7.56908
-7.5695
-7.56996
-7.57048
-7.57107
-7.57174
-7.57251
-7.57337
-7.57436
-7.57549
-7.57678
-7.57824
-7.5799
-7.58178
-7.5839
-7.58628
-7.58894
-7.5919
-7.59517
-7.59879
-7.60275
-7.60709
-7.61182
-7.61694
-7.62248
-7.62844
-7.63485
-7.64172
-7.64905
-7.65686
-7.66517
-7.67398
-7.68331
-7.69318
-7.70358
-7.71454
-7.72606
-7.73816
-7.75084
-7.76412
-7.77799
-7.79248
-7.80758
-7.82329
-7.83963
-7.85658
-7.87415
-7.89233
-7.91111
-7.93048
-7.95043
-7.97093
-7.99197
-8.01352
-8.03554
-8.05793
-8.08056
-8.10341
-8.12652
-8.14976
-8.17304
-8.19631
-8.21946
-8.24241
-8.26507
-8.28734
-8.30909
-8.33022
-8.35059
-8.37008
-8.38856
-8.40586
-8.42185
-8.43638
-8.44926
-8.46035
-8.46946
-8.47642
-8.48104
-8.48312
-8.48246
-8.47886
-8.47209
-8.46192
-8.44812
-8.43041
-8.40854
-8.38221
-8.35113
-8.31499
-8.27346
-8.2262
-8.17286
-8.11311
-8.0466
-7.97298
-7.89195
-7.8032
-7.70646
-7.6015
-7.48812
-7.36601
-7.2349
-7.09476
-6.9456
-6.78745
-6.62041
-6.44455
-6.26001
-6.06693
-5.86549
-5.6559
-5.43839
-5.21322
-4.98069
-4.7411
-4.4948
-4.24215
-3.98356
-3.71942
-3.45018
-3.17627
-2.89817
-2.61635
-2.33129
-2.04351
-1.75351
-1.4618
-1.16891
-0.875354
-0.581641
-0.288284
0.00421373
0.295354
0.584649
0.871626
1.15583
1.43683
1.7142
1.98756
2.25653
2.52078
2.78001
3.03393
3.28233
3.525
3.76178
3.99256
4.21726
4.43584
4.64841
4.85503
5.05588
5.2518
5.4429
5.63096
5.81341
6.00349
6.16849
-7.56525
-7.56522
-7.5652
-7.56523
-7.56532
-7.56544
-7.56557
-7.56571
-7.56586
-7.566
-7.56614
-7.56629
-7.56644
-7.56659
-7.56674
-7.5669
-7.56707
-7.56726
-7.56747
-7.56771
-7.56798
-7.5683
-7.56866
-7.56909
-7.56957
-7.57014
-7.57079
-7.57153
-7.57239
-7.57338
-7.57451
-7.57581
-7.57728
-7.57894
-7.58083
-7.58295
-7.58533
-7.58798
-7.59092
-7.59418
-7.59776
-7.60169
-7.60598
-7.61064
-7.6157
-7.62117
-7.62706
-7.63338
-7.64015
-7.64739
-7.6551
-7.66331
-7.67201
-7.68123
-7.69098
-7.70127
-7.71211
-7.72351
-7.73549
-7.74805
-7.76119
-7.77494
-7.78929
-7.80426
-7.81983
-7.83603
-7.85283
-7.87024
-7.88826
-7.90686
-7.92604
-7.94578
-7.96605
-7.98683
-8.00807
-8.02975
-8.05181
-8.0742
-8.09686
-8.11975
-8.14279
-8.1659
-8.18899
-8.21199
-8.2348
-8.25733
-8.27946
-8.3011
-8.32212
-8.3424
-8.36181
-8.38021
-8.39746
-8.4134
-8.4279
-8.44077
-8.45186
-8.461
-8.46801
-8.47271
-8.4749
-8.47439
-8.47097
-8.46442
-8.45453
-8.44104
-8.42372
-8.40228
-8.37646
-8.34595
-8.31044
-8.26962
-8.22313
-8.17064
-8.11181
-8.04627
-7.97369
-7.89375
-7.80615
-7.7106
-7.60689
-7.49478
-7.37388
-7.24395
-7.10504
-6.95714
-6.8003
-6.63457
-6.46006
-6.27688
-6.08518
-5.88513
-5.67694
-5.46083
-5.23708
-5.00596
-4.76779
-4.52291
-4.27169
-4.01452
-3.75181
-3.48399
-3.21151
-2.93484
-2.65444
-2.37081
-2.08445
-1.79587
-1.50558
-1.2141
-0.921941
-0.62962
-0.337641
-0.0465041
0.243296
0.531278
0.816972
1.09993
1.37973
1.65595
1.92822
2.19616
2.45946
2.71783
2.97098
3.21872
3.46085
3.69722
3.92773
4.15234
4.37099
4.58387
4.79109
4.99298
5.19029
5.38274
5.57248
5.75551
5.94746
6.10331
-7.56476
-7.56477
-7.56481
-7.56489
-7.565
-7.56514
-7.56527
-7.56541
-7.56554
-7.56567
-7.5658
-7.56591
-7.56602
-7.56614
-7.56625
-7.56637
-7.5665
-7.56666
-7.56683
-7.56704
-7.56729
-7.56759
-7.56794
-7.56835
-7.56883
-7.5694
-7.57006
-7.57083
-7.57172
-7.57274
-7.5739
-7.57524
-7.57675
-7.57847
-7.5804
-7.58256
-7.58498
-7.58766
-7.59064
-7.59392
-7.59752
-7.60146
-7.60575
-7.61042
-7.61547
-7.62092
-7.62678
-7.63307
-7.63981
-7.64701
-7.65467
-7.66282
-7.67146
-7.68062
-7.6903
-7.70051
-7.71127
-7.72258
-7.73447
-7.74693
-7.75998
-7.77362
-7.78787
-7.80272
-7.81818
-7.83425
-7.85092
-7.8682
-7.88608
-7.90454
-7.92357
-7.94315
-7.96327
-7.98388
-8.00496
-8.02647
-8.04837
-8.07061
-8.09314
-8.11591
-8.13883
-8.16183
-8.18483
-8.20775
-8.23048
-8.25294
-8.27503
-8.29662
-8.3176
-8.33785
-8.35724
-8.37563
-8.39288
-8.40885
-8.42337
-8.43628
-8.44744
-8.45666
-8.46377
-8.46859
-8.47093
-8.4706
-8.4674
-8.46111
-8.45152
-8.43838
-8.42145
-8.40046
-8.37514
-8.34519
-8.3103
-8.27014
-8.22438
-8.17266
-8.11464
-8.04995
-7.97825
-7.89922
-7.81254
-7.71794
-7.6152
-7.50397
-7.38382
-7.25468
-7.11657
-6.96949
-6.81348
-6.64858
-6.47491
-6.29256
-6.10169
-5.90247
-5.6951
-5.47981
-5.25686
-5.02653
-4.78914
-4.54504
-4.29458
-4.03817
-3.77621
-3.50913
-3.23739
-2.96145
-2.68178
-2.39888
-2.11325
-1.8254
-1.53584
-1.24509
-0.953672
-0.66209
-0.370849
-0.0804476
0.208617
0.495866
0.780829
1.06307
1.34216
1.61769
1.88928
2.15656
2.41924
2.67702
2.92962
3.17686
3.41854
3.65452
3.88473
4.10911
4.32765
4.54064
4.74827
4.95056
5.14818
5.34076
5.5306
5.71238
5.90414
6.04965
-7.564
-7.56407
-7.56419
-7.56434
-7.5645
-7.56466
-7.56481
-7.56496
-7.56509
-7.56521
-7.56532
-7.56542
-7.56552
-7.56561
-7.56571
-7.56581
-7.56593
-7.56607
-7.56624
-7.56644
-7.56669
-7.56698
-7.56734
-7.56777
-7.56828
-7.56887
-7.56957
-7.57038
-7.57132
-7.5724
-7.57363
-7.57502
-7.57661
-7.57839
-7.5804
-7.58263
-7.58512
-7.58787
-7.59091
-7.59425
-7.5979
-7.60189
-7.60622
-7.61092
-7.616
-7.62147
-7.62734
-7.63364
-7.64038
-7.64757
-7.65522
-7.66335
-7.67197
-7.68109
-7.69073
-7.70091
-7.71162
-7.72289
-7.73472
-7.74713
-7.76012
-7.7737
-7.78788
-7.80266
-7.81805
-7.83404
-7.85064
-7.86785
-7.88564
-7.90402
-7.92298
-7.94248
-7.96251
-7.98305
-8.00406
-8.0255
-8.04734
-8.06952
-8.092
-8.11472
-8.1376
-8.16058
-8.18355
-8.20646
-8.22919
-8.25165
-8.27374
-8.29535
-8.31636
-8.33664
-8.35606
-8.3745
-8.3918
-8.40782
-8.42241
-8.43541
-8.44665
-8.45598
-8.46321
-8.46817
-8.47068
-8.47054
-8.46756
-8.46153
-8.45223
-8.43942
-8.42287
-8.40231
-8.37746
-8.34803
-8.31371
-8.27416
-8.22905
-8.17801
-8.1207
-8.05673
-7.98577
-7.90747
-7.82152
-7.72765
-7.62564
-7.51495
-7.39523
-7.26656
-7.12893
-6.98233
-6.8268
-6.66239
-6.48919
-6.30731
-6.1169
-5.91812
-5.71118
-5.49629
-5.27372
-5.04376
-4.80672
-4.56295
-4.31281
-4.05669
-3.79502
-3.52822
-3.25675
-2.98106
-2.70165
-2.419
-2.13361
-1.84601
-1.5567
-1.26621
-0.975056
-0.683747
-0.392783
-0.102666
0.186103
0.473044
0.757686
1.03959
1.31835
1.59354
1.86476
2.13168
2.394
2.65141
2.90361
3.1505
3.39179
3.6274
3.85731
4.08143
4.29993
4.51289
4.72033
4.92238
5.11957
5.31146
5.50041
5.67994
5.87084
6.00619
-7.56301
-7.56316
-7.56338
-7.56362
-7.56384
-7.56404
-7.56422
-7.56439
-7.56453
-7.56466
-7.56477
-7.56487
-7.56496
-7.56506
-7.56515
-7.56526
-7.56538
-7.56553
-7.56571
-7.56593
-7.56619
-7.56651
-7.5669
-7.56736
-7.5679
-7.56855
-7.5693
-7.57017
-7.57117
-7.57232
-7.57363
-7.57512
-7.57679
-7.57866
-7.58076
-7.58308
-7.58566
-7.5885
-7.59162
-7.59504
-7.59877
-7.60283
-7.60723
-7.61198
-7.61711
-7.62262
-7.62854
-7.63487
-7.64163
-7.64884
-7.6565
-7.66464
-7.67326
-7.68239
-7.69202
-7.70218
-7.71288
-7.72414
-7.73595
-7.74833
-7.7613
-7.77486
-7.78901
-7.80377
-7.81913
-7.8351
-7.85168
-7.86886
-7.88663
-7.90499
-7.92393
-7.94341
-7.96344
-7.98397
-8.00497
-8.02642
-8.04827
-8.07047
-8.09297
-8.11571
-8.13862
-8.16163
-8.18465
-8.2076
-8.23039
-8.25291
-8.27507
-8.29674
-8.31782
-8.33818
-8.35768
-8.3762
-8.39359
-8.4097
-8.42438
-8.43748
-8.44884
-8.45829
-8.46565
-8.47076
-8.47344
-8.4735
-8.47073
-8.46495
-8.45593
-8.44344
-8.42724
-8.40708
-8.38267
-8.35372
-8.31992
-8.28092
-8.23639
-8.18595
-8.12924
-8.06589
-7.99553
-7.91782
-7.83242
-7.7391
-7.63755
-7.5271
-7.40753
-7.27907
-7.14165
-6.99527
-6.83995
-6.67575
-6.50274
-6.32104
-6.13079
-5.93215
-5.72532
-5.51053
-5.28802
-5.0581
-4.82107
-4.57729
-4.32712
-4.07095
-3.80921
-3.54233
-3.27075
-2.99496
-2.71543
-2.43264
-2.14713
-1.85939
-1.56996
-1.27935
-0.988087
-0.696681
-0.405626
-0.115431
0.173396
0.460374
0.745023
1.02692
1.30565
1.58078
1.85189
2.11866
2.38083
2.63805
2.88993
3.13657
3.37758
3.61285
3.84258
4.06648
4.28459
4.49704
4.70386
4.90517
5.10141
5.292
5.47937
5.65618
5.8459
5.97169
-7.56187
-7.56211
-7.56244
-7.56278
-7.56307
-7.56333
-7.56355
-7.56374
-7.56391
-7.56405
-7.56418
-7.56429
-7.5644
-7.56451
-7.56463
-7.56475
-7.5649
-7.56507
-7.56527
-7.56552
-7.56581
-7.56617
-7.5666
-7.5671
-7.5677
-7.5684
-7.56922
-7.57017
-7.57125
-7.57248
-7.57388
-7.57546
-7.57723
-7.57921
-7.5814
-7.58383
-7.58651
-7.58945
-7.59267
-7.59618
-7.6
-7.60414
-7.60862
-7.61345
-7.61864
-7.62422
-7.63019
-7.63657
-7.64337
-7.65062
-7.65832
-7.66648
-7.67513
-7.68427
-7.69392
-7.7041
-7.71481
-7.72607
-7.7379
-7.75029
-7.76327
-7.77683
-7.791
-7.80576
-7.82114
-7.83713
-7.85372
-7.87092
-7.88872
-7.90712
-7.92608
-7.94561
-7.96568
-7.98626
-8.00733
-8.02884
-8.05075
-8.07303
-8.0956
-8.11843
-8.14142
-8.16452
-8.18763
-8.21068
-8.23356
-8.25619
-8.27845
-8.30023
-8.32142
-8.34188
-8.36149
-8.38012
-8.39762
-8.41384
-8.42864
-8.44185
-8.45333
-8.4629
-8.4704
-8.47566
-8.4785
-8.47873
-8.47618
-8.47062
-8.46186
-8.44967
-8.4338
-8.41401
-8.39
-8.36149
-8.32816
-8.28966
-8.24564
-8.19573
-8.13955
-8.0767
-8.00683
-7.92957
-7.8446
-7.7517
-7.65026
-7.5397
-7.42013
-7.29167
-7.15426
-7.00789
-6.85257
-6.68836
-6.51533
-6.33359
-6.14327
-5.94454
-5.7376
-5.52265
-5.29997
-5.06984
-4.83257
-4.58852
-4.33806
-4.08158
-3.8195
-3.55225
-3.28031
-3.00413
-2.72419
-2.441
-2.15507
-1.86691
-1.57707
-1.28605
-0.994394
-0.702605
-0.411171
-0.120609
0.168557
0.455842
0.74075
1.02289
1.30186
1.57716
1.84836
2.11515
2.37738
2.63458
2.88627
3.1328
3.37379
3.60884
3.83818
4.06158
4.27907
4.49075
4.69667
4.8969
5.0918
5.28069
5.46609
5.63998
5.82826
5.94529
-7.56066
-7.56099
-7.56144
-7.56187
-7.56225
-7.56256
-7.56283
-7.56306
-7.56326
-7.56344
-7.56359
-7.56374
-7.56388
-7.56402
-7.56417
-7.56432
-7.5645
-7.5647
-7.56493
-7.56522
-7.56555
-7.56595
-7.56643
-7.56699
-7.56765
-7.56842
-7.56931
-7.57033
-7.5715
-7.57283
-7.57433
-7.576
-7.57788
-7.57996
-7.58226
-7.5848
-7.58759
-7.59063
-7.59396
-7.59757
-7.60148
-7.60571
-7.61027
-7.61518
-7.62045
-7.6261
-7.63213
-7.63857
-7.64543
-7.65273
-7.66047
-7.66868
-7.67737
-7.68655
-7.69624
-7.70645
-7.7172
-7.72849
-7.74035
-7.75277
-7.76578
-7.77939
-7.79359
-7.80841
-7.82383
-7.83987
-7.85652
-7.87378
-7.89165
-7.91012
-7.92916
-7.94878
-7.96894
-7.98961
-8.01078
-8.0324
-8.05443
-8.07682
-8.09952
-8.12247
-8.14559
-8.16881
-8.19206
-8.21523
-8.23825
-8.26101
-8.28341
-8.30532
-8.32663
-8.34722
-8.36695
-8.3857
-8.40331
-8.41964
-8.43455
-8.44788
-8.45947
-8.46915
-8.47677
-8.48216
-8.48514
-8.48554
-8.48316
-8.47781
-8.46928
-8.45736
-8.44179
-8.42232
-8.39869
-8.37057
-8.33766
-8.29961
-8.25604
-8.20659
-8.15084
-8.08842
-8.01892
-7.94198
-7.85732
-7.76464
-7.663
-7.55209
-7.43236
-7.30374
-7.16618
-7.01965
-6.86417
-6.69979
-6.52658
-6.34464
-6.15409
-5.95511
-5.74789
-5.53263
-5.30959
-5.07908
-4.8414
-4.59691
-4.34598
-4.08901
-3.82642
-3.55864
-3.28614
-3.0094
-2.72888
-2.44509
-2.15855
-1.8698
-1.57936
-1.28776
-0.995531
-0.703185
-0.411178
-0.120052
0.169637
0.457401
0.742708
1.02524
1.30465
1.58033
1.85175
2.1187
2.38116
2.63858
2.89041
3.13687
3.37764
3.61242
3.84131
4.06413
4.28092
4.49171
4.69657
4.89552
5.08887
5.27587
5.4591
5.63008
5.81666
5.92592
-7.55948
-7.55988
-7.56044
-7.56097
-7.56141
-7.56179
-7.56211
-7.56239
-7.56264
-7.56286
-7.56306
-7.56325
-7.56343
-7.56361
-7.56379
-7.56398
-7.56419
-7.56442
-7.5647
-7.56502
-7.5654
-7.56584
-7.56637
-7.56699
-7.56772
-7.56856
-7.56953
-7.57064
-7.57189
-7.57332
-7.57491
-7.57669
-7.57867
-7.58086
-7.58327
-7.58592
-7.58881
-7.59196
-7.59538
-7.59909
-7.6031
-7.60742
-7.61207
-7.61706
-7.62241
-7.62813
-7.63424
-7.64074
-7.64767
-7.65502
-7.66282
-7.67109
-7.67983
-7.68906
-7.6988
-7.70906
-7.71985
-7.7312
-7.74311
-7.75559
-7.76866
-7.78233
-7.7966
-7.81148
-7.82698
-7.8431
-7.85984
-7.8772
-7.89517
-7.91374
-7.9329
-7.95263
-7.97292
-7.99373
-8.01504
-8.0368
-8.05898
-8.08152
-8.10437
-8.12747
-8.15075
-8.17413
-8.19753
-8.22086
-8.24403
-8.26694
-8.28947
-8.31152
-8.33296
-8.35368
-8.37353
-8.39238
-8.4101
-8.42653
-8.44153
-8.45494
-8.46661
-8.47639
-8.48409
-8.48958
-8.49266
-8.49318
-8.49095
-8.48576
-8.47743
-8.46573
-8.45042
-8.43124
-8.40793
-8.38017
-8.34763
-8.30996
-8.26679
-8.21772
-8.16234
-8.10024
-8.03101
-7.95431
-7.86986
-7.77699
-7.6748
-7.56349
-7.44345
-7.31454
-7.1767
-7.0299
-6.87415
-6.70949
-6.53598
-6.35373
-6.16285
-5.96351
-5.7559
-5.54022
-5.31672
-5.08572
-4.84753
-4.6025
-4.35101
-4.09345
-3.83025
-3.56185
-3.28872
-3.01134
-2.73014
-2.44564
-2.15842
-1.86898
-1.57787
-1.28562
-0.992766
-0.699821
-0.407152
-0.11535
0.174941
0.463257
0.749024
1.03202
1.31197
1.58814
1.85999
2.12734
2.39001
2.64754
2.89952
3.14593
3.38649
3.62101
3.84947
4.07173
4.2878
4.4977
4.70146
4.89908
5.09082
5.27591
5.45693
5.62515
5.80979
5.91236
-7.55837
-7.55883
-7.55949
-7.56011
-7.56063
-7.56108
-7.56146
-7.56181
-7.56211
-7.56238
-7.56263
-7.56286
-7.56308
-7.56329
-7.56351
-7.56373
-7.56397
-7.56424
-7.56455
-7.56491
-7.56533
-7.56582
-7.56641
-7.56709
-7.56788
-7.56879
-7.56984
-7.57104
-7.57238
-7.5739
-7.57559
-7.57747
-7.57956
-7.58185
-7.58436
-7.58711
-7.5901
-7.59335
-7.59687
-7.60067
-7.60477
-7.60918
-7.61392
-7.61899
-7.62442
-7.63021
-7.63639
-7.64296
-7.64995
-7.65737
-7.66523
-7.67356
-7.68236
-7.69165
-7.70145
-7.71177
-7.72263
-7.73404
-7.74602
-7.75857
-7.77172
-7.78547
-7.79983
-7.8148
-7.8304
-7.84663
-7.86348
-7.88096
-7.89905
-7.91776
-7.93706
-7.95694
-7.97738
-7.99835
-8.01981
-8.04174
-8.06409
-8.08681
-8.10983
-8.1331
-8.15655
-8.18009
-8.20365
-8.22714
-8.25046
-8.2735
-8.29617
-8.31834
-8.3399
-8.36071
-8.38065
-8.39958
-8.41736
-8.43385
-8.4489
-8.46236
-8.47407
-8.48387
-8.49162
-8.49714
-8.50028
-8.50087
-8.49872
-8.49366
-8.48547
-8.47394
-8.45884
-8.43991
-8.41686
-8.3894
-8.35719
-8.31986
-8.27702
-8.22827
-8.17317
-8.11131
-8.04227
-7.96574
-7.88129
-7.78769
-7.68467
-7.57296
-7.45252
-7.32324
-7.18504
-7.03789
-6.88179
-6.71677
-6.5429
-6.36027
-6.169
-5.96925
-5.7612
-5.54503
-5.32102
-5.08948
-4.85073
-4.60512
-4.35303
-4.09486
-3.83103
-3.56199
-3.28822
-3.01022
-2.72834
-2.44311
-2.15519
-1.86508
-1.57331
-1.28042
-0.986977
-0.693473
-0.40017
-0.107698
0.183184
0.472067
0.758434
1.04197
1.32232
1.59885
1.87112
2.13884
2.40171
2.65935
2.91143
3.15781
3.39823
3.63251
3.86059
4.08235
4.29777
4.50683
4.70956
4.90591
5.09612
5.27939
5.45829
5.62398
5.80649
5.90353
-7.5574
-7.55792
-7.55867
-7.55938
-7.55998
-7.56049
-7.56094
-7.56134
-7.5617
-7.56202
-7.56232
-7.56259
-7.56285
-7.56309
-7.56333
-7.56358
-7.56385
-7.56414
-7.56447
-7.56487
-7.56532
-7.56587
-7.5665
-7.56724
-7.5681
-7.56909
-7.57022
-7.57149
-7.57293
-7.57454
-7.57632
-7.5783
-7.58047
-7.58286
-7.58547
-7.58831
-7.5914
-7.59474
-7.59835
-7.60223
-7.60642
-7.61091
-7.61572
-7.62087
-7.62637
-7.63223
-7.63848
-7.64512
-7.65218
-7.65966
-7.66759
-7.67598
-7.68484
-7.6942
-7.70406
-7.71445
-7.72539
-7.73687
-7.74893
-7.76157
-7.77481
-7.78865
-7.80311
-7.8182
-7.83391
-7.85026
-7.86725
-7.88486
-7.9031
-7.92195
-7.94141
-7.96146
-7.98206
-8.0032
-8.02484
-8.04695
-8.06947
-8.09236
-8.11556
-8.139
-8.16261
-8.1863
-8.21001
-8.23362
-8.25706
-8.28022
-8.30297
-8.32522
-8.34684
-8.3677
-8.38767
-8.40662
-8.4244
-8.44088
-8.45591
-8.46934
-8.48101
-8.49077
-8.49848
-8.50397
-8.50709
-8.50768
-8.50556
-8.50054
-8.49243
-8.48103
-8.46608
-8.44734
-8.42452
-8.39731
-8.36536
-8.32831
-8.28575
-8.23725
-8.18237
-8.12067
-8.05178
-7.97533
-7.89016
-7.79543
-7.69173
-7.57954
-7.45864
-7.32892
-7.19031
-7.04277
-6.88628
-6.72088
-6.54661
-6.36358
-6.17189
-5.97172
-5.76324
-5.54658
-5.32203
-5.08995
-4.85065
-4.60448
-4.35181
-4.09305
-3.82862
-3.55899
-3.28463
-3.00609
-2.72361
-2.43771
-2.14918
-1.85847
-1.56611
-1.27264
-0.978603
-0.684494
-0.3907
-0.0977987
0.193551
0.482904
0.769765
1.05373
1.33438
1.6112
1.88375
2.15171
2.41473
2.67247
2.9246
3.17095
3.41126
3.64535
3.87313
4.09448
4.30934
4.51769
4.71952
4.91475
5.10358
5.28522
5.46216
5.62561
5.80585
5.89854
-7.55664
-7.55721
-7.55805
-7.55885
-7.55952
-7.56009
-7.5606
-7.56106
-7.56146
-7.56183
-7.56216
-7.56246
-7.56274
-7.563
-7.56325
-7.56351
-7.56379
-7.56409
-7.56445
-7.56487
-7.56536
-7.56594
-7.56663
-7.56743
-7.56836
-7.56941
-7.57062
-7.57197
-7.57349
-7.57518
-7.57705
-7.57912
-7.58138
-7.58385
-7.58655
-7.58947
-7.59264
-7.59606
-7.59975
-7.60372
-7.60797
-7.61254
-7.61742
-7.62263
-7.6282
-7.63413
-7.64044
-7.64714
-7.65426
-7.66181
-7.6698
-7.67825
-7.68718
-7.6966
-7.70654
-7.71701
-7.72802
-7.73959
-7.75173
-7.76447
-7.7778
-7.79175
-7.80632
-7.82153
-7.83737
-7.85385
-7.87097
-7.88873
-7.90713
-7.92614
-7.94575
-7.96596
-7.98673
-8.00804
-8.02984
-8.05211
-8.0748
-8.09784
-8.12118
-8.14475
-8.16848
-8.19228
-8.21607
-8.23977
-8.26326
-8.28645
-8.30922
-8.33146
-8.35306
-8.37387
-8.39378
-8.41264
-8.43033
-8.4467
-8.46161
-8.47491
-8.48644
-8.49606
-8.50362
-8.50899
-8.512
-8.5125
-8.51033
-8.50529
-8.4972
-8.48585
-8.471
-8.4524
-8.42976
-8.40276
-8.37104
-8.33422
-8.29189
-8.24358
-8.18885
-8.1273
-8.05854
-7.98153
-7.89494
-7.79906
-7.69484
-7.58215
-7.46078
-7.33063
-7.1916
-7.04366
-6.88678
-6.721
-6.54634
-6.36292
-6.17083
-5.97025
-5.7614
-5.54434
-5.3193
-5.08674
-4.84695
-4.60027
-4.34708
-4.0878
-3.82284
-3.55268
-3.27778
-2.99866
-2.71569
-2.42936
-2.14036
-1.84919
-1.55638
-1.26246
-0.967966
-0.673414
-0.379277
-0.0861062
0.205534
0.495166
0.782302
1.0665
1.34732
1.62428
1.89697
2.16503
2.42811
2.68587
2.93801
3.1843
3.42452
3.65846
3.88601
4.10704
4.32147
4.52926
4.73035
4.92467
5.11235
5.29259
5.46779
5.62936
5.80725
5.89678
-7.55613
-7.55677
-7.5577
-7.55857
-7.55931
-7.55994
-7.56049
-7.56099
-7.56143
-7.56182
-7.56216
-7.56247
-7.56275
-7.56301
-7.56325
-7.5635
-7.56377
-7.56408
-7.56445
-7.56488
-7.56541
-7.56603
-7.56677
-7.56762
-7.56861
-7.56973
-7.57101
-7.57244
-7.57403
-7.5758
-7.57775
-7.57989
-7.58223
-7.58478
-7.58755
-7.59055
-7.59379
-7.59728
-7.60103
-7.60506
-7.60938
-7.614
-7.61894
-7.62422
-7.62984
-7.63583
-7.64219
-7.64895
-7.65613
-7.66373
-7.67178
-7.6803
-7.68929
-7.69878
-7.70879
-7.71933
-7.73042
-7.74208
-7.75431
-7.76715
-7.78058
-7.79464
-7.80933
-7.82465
-7.84062
-7.85724
-7.8745
-7.8924
-7.91093
-7.93008
-7.94984
-7.97018
-7.99109
-8.01252
-8.03445
-8.05683
-8.07962
-8.10275
-8.12616
-8.14979
-8.17355
-8.19736
-8.22114
-8.24479
-8.26821
-8.29131
-8.31398
-8.33608
-8.35752
-8.37815
-8.39785
-8.4165
-8.43395
-8.45007
-8.46473
-8.47778
-8.48907
-8.49844
-8.50575
-8.51088
-8.51369
-8.51402
-8.51171
-8.50658
-8.49845
-8.48711
-8.47231
-8.45381
-8.43131
-8.40448
-8.37296
-8.33634
-8.29419
-8.24606
-8.1915
-8.13005
-8.06091
-7.98227
-7.89407
-7.79764
-7.69297
-7.57983
-7.45804
-7.3275
-7.1881
-7.03981
-6.88259
-6.71645
-6.54146
-6.35768
-6.16524
-5.96428
-5.75501
-5.5376
-5.31223
-5.07929
-4.83909
-4.592
-4.3384
-4.07869
-3.81332
-3.54274
-3.26742
-2.98786
-2.70452
-2.41791
-2.12862
-1.83718
-1.54411
-1.24996
-0.955245
-0.660503
-0.366235
-0.0729757
0.218741
0.50843
0.795606
1.07982
1.36062
1.63756
1.91021
2.17822
2.44124
2.69894
2.951
3.19721
3.43732
3.67114
3.89851
4.11932
4.33346
4.54085
4.74142
4.93505
5.12182
5.30097
5.4747
5.63477
5.8103
5.89786
-7.55595
-7.55665
-7.55767
-7.55863
-7.55941
-7.56008
-7.56067
-7.56118
-7.56162
-7.56201
-7.56234
-7.56263
-7.56287
-7.5631
-7.56331
-7.56353
-7.56378
-7.56408
-7.56444
-7.56489
-7.56544
-7.5661
-7.56688
-7.56778
-7.56882
-7.57001
-7.57135
-7.57285
-7.57451
-7.57635
-7.57837
-7.58059
-7.58299
-7.58561
-7.58844
-7.5915
-7.5948
-7.59835
-7.60215
-7.60623
-7.6106
-7.61527
-7.62026
-7.62558
-7.63125
-7.63728
-7.64369
-7.65051
-7.65773
-7.66539
-7.67349
-7.68206
-7.69111
-7.70067
-7.71075
-7.72136
-7.73253
-7.74427
-7.75659
-7.76951
-7.78305
-7.7972
-7.81199
-7.82742
-7.8435
-7.86022
-7.87759
-7.89559
-7.91422
-7.93345
-7.95328
-7.97369
-7.99464
-8.01611
-8.03805
-8.06043
-8.08319
-8.10627
-8.12962
-8.15316
-8.1768
-8.20046
-8.22404
-8.24747
-8.27065
-8.29348
-8.31585
-8.33765
-8.35875
-8.37903
-8.39836
-8.41662
-8.43368
-8.4494
-8.46367
-8.47634
-8.48728
-8.49632
-8.50331
-8.50812
-8.51066
-8.51076
-8.50827
-8.50302
-8.49482
-8.48346
-8.46871
-8.4503
-8.42795
-8.4013
-8.36998
-8.33359
-8.29167
-8.24379
-8.18932
-8.12733
-8.05617
-7.97562
-7.88687
-7.79012
-7.68508
-7.57158
-7.44946
-7.3186
-7.17891
-7.03034
-6.87284
-6.70644
-6.53118
-6.34712
-6.1544
-5.95315
-5.74356
-5.52583
-5.30021
-5.06699
-4.82652
-4.57916
-4.32529
-4.06532
-3.7997
-3.52888
-3.25334
-2.97358
-2.69009
-2.40338
-2.11402
-1.82252
-1.52944
-1.23529
-0.940627
-0.64596
-0.351805
-0.0586896
0.232864
0.522369
0.809346
1.09334
1.37392
1.65064
1.92308
2.19088
2.45371
2.71123
2.96314
3.20921
3.4492
3.68291
3.91017
4.13085
4.34483
4.55199
4.75225
4.94544
5.1316
5.30997
5.48256
5.64156
5.81482
5.90158
-7.55616
-7.55695
-7.55808
-7.55911
-7.55993
-7.56061
-7.56118
-7.56167
-7.56207
-7.56241
-7.56268
-7.56291
-7.56309
-7.56324
-7.56339
-7.56356
-7.56377
-7.56405
-7.56441
-7.56487
-7.56543
-7.56611
-7.56693
-7.56788
-7.56897
-7.57021
-7.57161
-7.57317
-7.5749
-7.57681
-7.57889
-7.58117
-7.58364
-7.58631
-7.5892
-7.5923
-7.59565
-7.59924
-7.60308
-7.6072
-7.6116
-7.61631
-7.62133
-7.62668
-7.63239
-7.63846
-7.64491
-7.65176
-7.65902
-7.66672
-7.67487
-7.68349
-7.69259
-7.7022
-7.71234
-7.72301
-7.73425
-7.74605
-7.75844
-7.77142
-7.78501
-7.79923
-7.81406
-7.82954
-7.84564
-7.86239
-7.87976
-7.89776
-7.91636
-7.93555