/*--------------------------------*- C++ -*----------------------------------*\
| =========                 |                                                 |
| \\      /  F ield         | OpenFOAM: The Open Source CFD Toolbox           |
|  \\    /   O peration     | Version:  1.4.2                                 |
|   \\  /    A nd           | Web:      http://www.openfoam.org               |
|    \\/     M anipulation  |                                                 |
\*---------------------------------------------------------------------------*/
FoamFile
{
    version     2.0;
    format      ascii;
    class       surfaceScalarField;
    object      phi;
    location    "1000";
}
// * * * * * * * * * * * * * * * * * * * * * * * * * * * * * * * * * * * * * //

dimensions      [0 3 -1 0 0 0 0];

internalField   nonuniform List<scalar> 
24170
(
3.03918e-06
9.47101e-08
2.96659e-06
7.25927e-08
2.90197e-06
6.46216e-08
2.84074e-06
6.12322e-08
2.78297e-06
5.77657e-08
2.7289e-06
5.40664e-08
2.67846e-06
5.04432e-08
2.63149e-06
4.69755e-08
2.58783e-06
4.36561e-08
2.54735e-06
4.04776e-08
2.50992e-06
3.74353e-08
2.4754e-06
3.45186e-08
2.44369e-06
3.17065e-08
2.41473e-06
2.89598e-08
2.38853e-06
2.62021e-08
2.36527e-06
2.32561e-08
2.34549e-06
1.97783e-08
9.62336e-09
2.33587e-06
3.46199e-06
8.91623e-08
3.45386e-06
8.0723e-08
3.44442e-06
7.40663e-08
3.43379e-06
7.1858e-08
3.42224e-06
6.93136e-08
3.41017e-06
6.61386e-08
3.3978e-06
6.28143e-08
3.38527e-06
5.95016e-08
3.37272e-06
5.62136e-08
3.36024e-06
5.29532e-08
3.34795e-06
4.97223e-08
3.33596e-06
4.65094e-08
3.32439e-06
4.32812e-08
3.31338e-06
3.99677e-08
3.30316e-06
3.64234e-08
3.29409e-06
3.23254e-08
3.28702e-06
2.68523e-08
1.73639e-08
3.27927e-06
3.82433e-06
7.70285e-08
3.8263e-06
7.87477e-08
3.82561e-06
7.47635e-08
3.82406e-06
7.34063e-08
3.82188e-06
7.14865e-08
3.81926e-06
6.87626e-08
3.81633e-06
6.57402e-08
3.8132e-06
6.26312e-08
3.80994e-06
5.94781e-08
3.8066e-06
5.62954e-08
3.80323e-06
5.30877e-08
3.7999e-06
4.98393e-08
3.79668e-06
4.65058e-08
3.79365e-06
4.2998e-08
3.79092e-06
3.91469e-08
3.78862e-06
3.46318e-08
3.7866e-06
2.88676e-08
2.08219e-08
3.78315e-06
4.2169e-06
6.4689e-08
4.22212e-06
7.35234e-08
4.2243e-06
7.25825e-08
4.22556e-06
7.21459e-08
4.22628e-06
7.07694e-08
4.22659e-06
6.84527e-08
4.22663e-06
6.57025e-08
4.22649e-06
6.27643e-08
4.22626e-06
5.9714e-08
4.22597e-06
5.65826e-08
4.22568e-06
5.33808e-08
4.22542e-06
5.00942e-08
4.22525e-06
4.66765e-08
4.22521e-06
4.30386e-08
4.22533e-06
3.90266e-08
4.22557e-06
3.43936e-08
4.22562e-06
2.88145e-08
2.20099e-08
4.22444e-06
4.6487e-06
5.32987e-08
4.65545e-06
6.67734e-08
4.65932e-06
6.87093e-08
4.66212e-06
6.9343e-08
4.66433e-06
6.8566e-08
4.6661e-06
6.6676e-08
4.66759e-06
6.4216e-08
4.66889e-06
6.14652e-08
4.67007e-06
5.8532e-08
4.67119e-06
5.54658e-08
4.67228e-06
5.22865e-08
4.67339e-06
4.89854e-08
4.67454e-06
4.55227e-08
4.67576e-06
4.18224e-08
4.67702e-06
3.77658e-08
4.67822e-06
3.31934e-08
4.67907e-06
2.79695e-08
2.21488e-08
4.67893e-06
5.12456e-06
4.33373e-08
5.132e-06
5.93286e-08
5.13708e-06
6.36305e-08
5.14109e-06
6.53368e-08
5.14441e-06
6.52415e-08
5.14724e-06
6.38455e-08
5.14973e-06
6.17259e-08
5.152e-06
5.92012e-08
5.15411e-06
5.64172e-08
5.15613e-06
5.34467e-08
5.15809e-06
5.0323e-08
5.16003e-06
4.70473e-08
5.16196e-06
4.35922e-08
5.16388e-06
3.99031e-08
5.16574e-06
3.59027e-08
5.16743e-06
3.15086e-08
5.1687e-06
2.67021e-08
2.16602e-08
5.16918e-06
5.64939e-06
3.49566e-08
5.65697e-06
5.17444e-08
5.66284e-06
5.77585e-08
5.66779e-06
6.03897e-08
5.67207e-06
6.09631e-08
5.67582e-06
6.00924e-08
5.67919e-06
5.83613e-08
5.68227e-06
5.61146e-08
5.68516e-06
5.35286e-08
5.68791e-06
5.0699e-08
5.69056e-06
4.76752e-08
5.69313e-06
4.44735e-08
5.69564e-06
4.10841e-08
5.69807e-06
3.74781e-08
5.70035e-06
3.36186e-08
5.70238e-06
2.94821e-08
5.70396e-06
2.5113e-08
2.07101e-08
5.70491e-06
4.41121e-06
2.98632e-08
4.41651e-06
4.64374e-08
4.42103e-06
5.32378e-08
4.42499e-06
5.64364e-08
4.42851e-06
5.74345e-08
4.43169e-06
5.69185e-08
4.43458e-06
5.54705e-08
4.43725e-06
5.34411e-08
4.43976e-06
5.10211e-08
4.44214e-06
4.83198e-08
4.44442e-06
4.53979e-08
4.44661e-06
4.22826e-08
4.44871e-06
3.89779e-08
4.45072e-06
3.54735e-08
4.45258e-06
3.1758e-08
4.45422e-06
2.78391e-08
4.45555e-06
2.37846e-08
1.97826e-08
4.45648e-06
5.1446e-06
2.51223e-08
5.15008e-06
4.09556e-08
5.15508e-06
4.82385e-08
5.15964e-06
5.18741e-08
5.16382e-06
5.32556e-08
5.16765e-06
5.30865e-08
5.17119e-06
5.19311e-08
5.17449e-06
5.01397e-08
5.1776e-06
4.7913e-08
5.18055e-06
4.5371e-08
5.18336e-06
4.25853e-08
5.18605e-06
3.95945e-08
5.18861e-06
3.6417e-08
5.19102e-06
3.30609e-08
5.19324e-06
2.95373e-08
5.19521e-06
2.58773e-08
5.19683e-06
2.21594e-08
1.85534e-08
5.19806e-06
6.0001e-06
2.08114e-08
6.00563e-06
3.54326e-08
6.011e-06
4.287e-08
6.0161e-06
4.67686e-08
6.0209e-06
4.84512e-08
6.0254e-06
4.85928e-08
6.02961e-06
4.77201e-08
6.03358e-06
4.61741e-08
6.03733e-06
4.41598e-08
6.04089e-06
4.18047e-08
6.04429e-06
3.91893e-08
6.04752e-06
3.63635e-08
6.05058e-06
3.33592e-08
6.05344e-06
3.02009e-08
6.05606e-06
2.69176e-08
6.05838e-06
2.35551e-08
6.06035e-06
2.01924e-08
1.69761e-08
6.06193e-06
6.99811e-06
1.69675e-08
7.00355e-06
2.99964e-08
7.00917e-06
3.72452e-08
7.01473e-06
4.12128e-08
7.0201e-06
4.30809e-08
7.02522e-06
4.34686e-08
7.03009e-06
4.28478e-08
7.03473e-06
4.15397e-08
7.03914e-06
3.97468e-08
7.04335e-06
3.76001e-08
7.04735e-06
3.51865e-08
7.05115e-06
3.25652e-08
7.05473e-06
2.97796e-08
7.05806e-06
2.68671e-08
7.06111e-06
2.38685e-08
7.06383e-06
2.08364e-08
7.06618e-06
1.78435e-08
1.50111e-08
7.06814e-06
8.1624e-06
1.35773e-08
8.16765e-06
2.47513e-08
8.17342e-06
3.14763e-08
8.17932e-06
3.53086e-08
8.18518e-06
3.72259e-08
8.19087e-06
3.77724e-08
8.19637e-06
3.73547e-08
8.20164e-06
3.62633e-08
8.2067e-06
3.46907e-08
8.21153e-06
3.27668e-08
8.21614e-06
3.05816e-08
8.2205e-06
2.82005e-08
8.22461e-06
2.56748e-08
8.22842e-06
2.30502e-08
8.23192e-06
2.03733e-08
8.23506e-06
1.76965e-08
8.23782e-06
1.50829e-08
1.26293e-08
8.2402e-06
9.52072e-06
1.05873e-08
9.52571e-06
1.97608e-08
9.53153e-06
2.56591e-08
9.53768e-06
2.91492e-08
9.54394e-06
3.09694e-08
9.55014e-06
3.15737e-08
9.5562e-06
3.12978e-08
9.56207e-06
3.03918e-08
9.56773e-06
2.90312e-08
9.57316e-06
2.73386e-08
9.57833e-06
2.54032e-08
9.58324e-06
2.32923e-08
9.58786e-06
2.10611e-08
9.59215e-06
1.87579e-08
9.59609e-06
1.64299e-08
9.59966e-06
1.41249e-08
9.60285e-06
1.18948e-08
9.81492e-09
9.60567e-06
1.11054e-05
7.9198e-09
1.11101e-05
1.50373e-08
1.11159e-05
1.98575e-08
1.11222e-05
2.2804e-08
1.11288e-05
2.43791e-08
1.11355e-05
2.49339e-08
1.1142e-05
2.47315e-08
1.11485e-05
2.39745e-08
1.11547e-05
2.28129e-08
1.11607e-05
2.13566e-08
1.11664e-05
1.96881e-08
1.11718e-05
1.78722e-08
1.11769e-05
1.59625e-08
1.11816e-05
1.40057e-08
1.1186e-05
1.20449e-08
1.119e-05
1.01209e-08
1.11937e-05
8.27442e-09
6.56301e-09
1.11969e-05
1.29541e-05
5.48537e-09
1.29586e-05
1.05386e-08
1.29643e-05
1.40867e-08
1.29708e-05
1.63029e-08
1.29777e-05
1.74889e-08
1.29848e-05
1.78878e-08
1.29918e-05
1.76884e-08
1.29987e-05
1.70416e-08
1.30055e-05
1.60645e-08
1.3012e-05
1.48471e-08
1.30182e-05
1.34597e-08
1.30241e-05
1.19588e-08
1.30297e-05
1.03919e-08
1.30349e-05
8.79974e-09
1.30397e-05
7.21833e-09
1.30442e-05
5.68025e-09
1.30482e-05
4.21612e-09
2.86927e-09
1.30519e-05
1.51108e-05
3.18407e-09
1.51151e-05
6.16302e-09
1.51209e-05
8.28922e-09
1.51276e-05
9.61137e-09
1.51348e-05
1.0276e-08
1.51423e-05
1.04203e-08
1.51498e-05
1.01579e-08
1.51573e-05
9.5842e-09
1.51646e-05
8.77749e-09
1.51716e-05
7.80122e-09
1.51784e-05
6.70713e-09
1.51848e-05
5.53841e-09
1.51909e-05
4.3317e-09
1.51965e-05
3.11851e-09
1.52018e-05
1.92605e-09
1.52067e-05
7.78076e-10
1.52112e-05
-3.03552e-10
-1.28678e-09
1.52154e-05
1.76267e-05
8.90967e-10
1.76312e-05
1.72374e-09
1.76372e-05
2.29179e-09
1.76442e-05
2.58065e-09
1.76519e-05
2.61337e-09
1.76599e-05
2.42383e-09
1.7668e-05
2.04813e-09
1.7676e-05
1.52206e-09
1.76839e-05
8.7936e-10
1.76916e-05
1.50964e-10
1.76989e-05
-6.35174e-10
1.77059e-05
-1.45393e-09
1.77125e-05
-2.28285e-09
1.77188e-05
-3.10215e-09
1.77246e-05
-3.89464e-09
1.773e-05
-4.64535e-09
1.7735e-05
-5.34016e-09
-5.95607e-09
1.77397e-05
1.78284e-05
-1.28826e-09
1.78326e-05
-2.51022e-09
1.78383e-05
-3.44301e-09
1.78451e-05
-4.15348e-09
1.78524e-05
-4.73274e-09
1.78601e-05
-5.2456e-09
1.78679e-05
-5.73062e-09
1.78756e-05
-6.20971e-09
1.78832e-05
-6.69315e-09
1.78905e-05
-7.1828e-09
1.78976e-05
-7.67496e-09
1.79043e-05
-8.16283e-09
1.79106e-05
-8.63816e-09
1.79166e-05
-9.0924e-09
1.79222e-05
-9.51739e-09
1.79275e-05
-9.90553e-09
1.79324e-05
-1.02487e-08
-1.05311e-08
1.7937e-05
1.58834e-05
-3.34233e-09
1.58873e-05
-6.44052e-09
1.58926e-05
-8.67816e-09
1.58986e-05
-1.02146e-08
1.59052e-05
-1.12748e-08
1.59119e-05
-1.20204e-08
1.59188e-05
-1.25582e-08
1.59255e-05
-1.2962e-08
1.59321e-05
-1.32806e-08
1.59385e-05
-1.35439e-08
1.59446e-05
-1.37687e-08
1.59504e-05
-1.39634e-08
1.59558e-05
-1.41312e-08
1.5961e-05
-1.42723e-08
1.59659e-05
-1.43856e-08
1.59705e-05
-1.44687e-08
1.59747e-05
-1.45178e-08
-1.4522e-08
1.59787e-05
1.41508e-05
-5.47865e-09
1.41548e-05
-1.0402e-08
1.41599e-05
-1.37739e-08
1.41656e-05
-1.59542e-08
1.41717e-05
-1.73492e-08
1.41779e-05
-1.82186e-08
1.4184e-05
-1.87329e-08
1.41901e-05
-1.90136e-08
1.4196e-05
-1.91434e-08
1.42016e-05
-1.91749e-08
1.4207e-05
-1.91409e-08
1.42121e-05
-1.90613e-08
1.42169e-05
-1.89479e-08
1.42214e-05
-1.88076e-08
1.42257e-05
-1.86441e-08
1.42297e-05
-1.84592e-08
1.42334e-05
-1.82521e-08
-1.80157e-08
1.42369e-05
1.26074e-05
-7.88898e-09
1.26117e-05
-1.46467e-08
1.26169e-05
-1.89529e-08
1.26225e-05
-2.15696e-08
1.26283e-05
-2.31382e-08
1.26341e-05
-2.40092e-08
1.26397e-05
-2.44118e-08
1.26452e-05
-2.45113e-08
1.26505e-05
-2.44181e-08
1.26555e-05
-2.42018e-08
1.26603e-05
-2.39065e-08
1.26648e-05
-2.35602e-08
1.2669e-05
-2.31803e-08
1.2673e-05
-2.27781e-08
1.26767e-05
-2.23607e-08
1.26802e-05
-2.19326e-08
1.26834e-05
-2.14955e-08
-2.10456e-08
1.26865e-05
1.12327e-05
-1.07932e-08
1.12374e-05
-1.93789e-08
1.12428e-05
-2.43346e-08
1.12484e-05
-2.71422e-08
1.1254e-05
-2.87071e-08
1.12594e-05
-2.9446e-08
1.12646e-05
-2.96409e-08
1.12696e-05
-2.9496e-08
1.12743e-05
-2.91416e-08
1.12788e-05
-2.86578e-08
1.1283e-05
-2.80951e-08
1.12869e-05
-2.74855e-08
1.12906e-05
-2.68495e-08
1.1294e-05
-2.62003e-08
1.12972e-05
-2.55466e-08
1.13001e-05
-2.48948e-08
1.13029e-05
-2.42484e-08
-2.36071e-08
1.13055e-05
1.00083e-05
-1.44634e-08
1.00137e-05
-2.47466e-08
1.00192e-05
-2.99315e-08
1.00247e-05
-3.2642e-08
1.00301e-05
-3.40103e-08
1.00351e-05
-3.44763e-08
1.00398e-05
-3.43681e-08
1.00442e-05
-3.39197e-08
1.00484e-05
-3.32711e-08
1.00522e-05
-3.25054e-08
1.00558e-05
-3.16739e-08
1.00591e-05
-3.0809e-08
1.00622e-05
-2.99308e-08
1.0065e-05
-2.90519e-08
1.00677e-05
-2.81812e-08
1.00701e-05
-2.73253e-08
1.00724e-05
-2.64898e-08
-2.56782e-08
1.00744e-05
8.91786e-06
-1.92252e-08
8.92391e-06
-3.0798e-08
8.9296e-06
-3.56224e-08
8.93488e-06
-3.79159e-08
8.93976e-06
-3.88915e-08
8.94423e-06
-3.89534e-08
8.94833e-06
-3.84636e-08
8.95208e-06
-3.76712e-08
8.95552e-06
-3.67132e-08
8.95869e-06
-3.56669e-08
8.96159e-06
-3.45793e-08
8.96426e-06
-3.34788e-08
8.96671e-06
-3.23823e-08
8.96896e-06
-3.12998e-08
8.97102e-06
-3.02378e-08
8.97289e-06
-2.92019e-08
8.9746e-06
-2.81989e-08
-2.72375e-08
8.97616e-06
7.94686e-06
-2.54194e-08
7.95348e-06
-3.74118e-08
7.95897e-06
-4.11212e-08
7.96374e-06
-4.26832e-08
7.96795e-06
-4.31002e-08
7.97166e-06
-4.26652e-08
7.97495e-06
-4.17542e-08
7.97789e-06
-4.06124e-08
7.98054e-06
-3.93597e-08
7.98293e-06
-3.80591e-08
7.9851e-06
-3.67475e-08
7.98707e-06
-3.54466e-08
7.98885e-06
-3.41678e-08
7.99047e-06
-3.29165e-08
7.99193e-06
-3.16953e-08
7.99323e-06
-3.05065e-08
7.99439e-06
-2.93566e-08
-2.82598e-08
7.99541e-06
7.08223e-06
-3.33153e-08
7.08902e-06
-4.42024e-08
7.09386e-06
-4.59588e-08
7.09772e-06
-4.65529e-08
7.10095e-06
-4.63275e-08
7.10366e-06
-4.53764e-08
7.10597e-06
-4.40627e-08
7.10797e-06
-4.26088e-08
7.10971e-06
-4.11054e-08
7.11125e-06
-3.95948e-08
7.1126e-06
-3.81019e-08
7.1138e-06
-3.6641e-08
7.11485e-06
-3.52181e-08
7.11577e-06
-3.38339e-08
7.11656e-06
-3.24861e-08
7.11722e-06
-3.11709e-08
7.11775e-06
-2.98898e-08
-2.86559e-08
7.11815e-06
6.31217e-06
-4.29771e-08
6.31832e-06
-5.035e-08
6.32183e-06
-4.94722e-08
6.32434e-06
-4.90611e-08
6.32624e-06
-4.82253e-08
6.32767e-06
-4.68041e-08
6.32875e-06
-4.51396e-08
6.32956e-06
-4.3423e-08
6.33017e-06
-4.17142e-08
6.33061e-06
-4.00364e-08
6.33091e-06
-3.8404e-08
6.3311e-06
-3.68242e-08
6.33118e-06
-3.52981e-08
6.33116e-06
-3.38217e-08
6.33106e-06
-3.23867e-08
6.33087e-06
-3.09798e-08
6.33057e-06
-2.9588e-08
-2.81991e-08
6.33011e-06
5.62586e-06
-5.39351e-08
5.62969e-06
-5.41778e-08
5.63084e-06
-5.06285e-08
5.63116e-06
-4.93837e-08
5.63091e-06
-4.79691e-08
5.63022e-06
-4.61181e-08
5.62924e-06
-4.41601e-08
5.62806e-06
-4.22406e-08
5.62673e-06
-4.03848e-08
5.62529e-06
-3.85971e-08
5.62377e-06
-3.6881e-08
5.62218e-06
-3.52371e-08
5.62055e-06
-3.36618e-08
5.61887e-06
-3.2148e-08
5.61717e-06
-3.06825e-08
5.61543e-06
-2.9241e-08
5.61362e-06
-2.77824e-08
-2.61848e-08
5.61161e-06
5.01053e-06
-6.21608e-08
5.00697e-06
-5.06116e-08
5.00192e-06
-4.55825e-08
4.99616e-06
-4.36267e-08
4.98987e-06
-4.16764e-08
4.98331e-06
-3.95522e-08
4.97662e-06
-3.74767e-08
4.9699e-06
-3.55182e-08
4.96319e-06
-3.36713e-08
4.95651e-06
-3.19254e-08
4.94991e-06
-3.02744e-08
4.94338e-06
-2.87128e-08
4.93696e-06
-2.72338e-08
4.93064e-06
-2.58296e-08
4.92444e-06
-2.44883e-08
4.91839e-06
-2.31848e-08
4.91246e-06
-2.18604e-08
-2.00748e-08
4.90635e-06
4.39439e-06
4.34378e-06
4.29819e-06
4.25457e-06
4.21289e-06
4.17334e-06
4.13586e-06
4.10034e-06
4.06667e-06
4.03475e-06
4.00447e-06
3.97576e-06
3.94853e-06
3.9227e-06
3.89821e-06
3.87502e-06
3.85316e-06
3.83309e-06
6.93815e-10
-6.93818e-10
2.65867e-09
-1.9649e-09
5.55373e-09
-2.89506e-09
8.95952e-09
-3.40576e-09
1.25162e-08
-3.55653e-09
1.59528e-08
-3.43648e-09
1.90816e-08
-3.12859e-09
2.17817e-08
-2.69999e-09
2.39848e-08
-2.20284e-09
2.56629e-08
-1.67793e-09
2.68194e-08
-1.15641e-09
2.74781e-08
-6.58737e-10
2.7671e-08
-1.93151e-10
2.74347e-08
2.36054e-10
2.68088e-08
6.25479e-10
2.58296e-08
9.7872e-10
2.45246e-08
1.30437e-09
2.29117e-08
1.61229e-09
2.09973e-08
1.91388e-09
1.87697e-08
2.22709e-09
1.61869e-08
2.58242e-09
1.31867e-08
2.99985e-09
9.68163e-09
3.50485e-09
5.56003e-09
4.1214e-09
7.07429e-10
4.85239e-09
-4.9865e-09
5.69364e-09
-1.16101e-08
6.62314e-09
-1.92343e-08
7.62362e-09
-2.7918e-08
8.68306e-09
-3.77023e-08
9.78352e-09
-4.86078e-08
1.09046e-08
-6.06356e-08
1.20271e-08
-7.37705e-08
1.31342e-08
-8.79834e-08
1.42125e-08
-1.03235e-07
1.52517e-08
-1.1948e-07
1.62448e-08
-1.36667e-07
1.71874e-08
-1.54744e-07
1.80772e-08
-1.73658e-07
1.89141e-08
-1.93356e-07
1.9699e-08
-2.1379e-07
2.04342e-08
-2.34913e-07
2.11226e-08
-2.5668e-07
2.17676e-08
-2.79053e-07
2.23731e-08
-3.01996e-07
2.29428e-08
-3.25477e-07
2.34807e-08
-3.49467e-07
2.39906e-08
-3.73943e-07
2.44759e-08
-3.98882e-07
2.494e-08
-4.24268e-07
2.53857e-08
-4.50084e-07
2.58156e-08
-4.76316e-07
2.62321e-08
-5.02953e-07
2.66372e-08
-5.29986e-07
2.70323e-08
-5.57405e-07
2.7419e-08
-5.85203e-07
2.77981e-08
-6.13373e-07
2.81705e-08
-6.4191e-07
2.85365e-08
-6.70805e-07
2.88962e-08
-7.00055e-07
2.92496e-08
-7.29651e-07
2.9596e-08
-7.59586e-07
2.99349e-08
-7.89851e-07
3.02651e-08
-8.20437e-07
3.05855e-08
-8.51332e-07
3.08945e-08
-8.82522e-07
3.11903e-08
-9.13993e-07
3.14709e-08
-9.45727e-07
3.17336e-08
-9.77703e-07
3.19756e-08
-1.0099e-06
3.21936e-08
-1.04228e-06
3.23842e-08
-1.07482e-06
3.25444e-08
-1.1075e-06
3.26735e-08
-1.14027e-06
3.27752e-08
-1.17313e-06
3.28614e-08
-1.20609e-06
3.29546e-08
-1.23919e-06
3.31028e-08
-1.27267e-06
3.34775e-08
-1.30642e-06
3.37499e-08
-1.34018e-06
3.3763e-08
-1.37399e-06
3.38052e-08
-1.40784e-06
3.38564e-08
-1.44174e-06
3.38988e-08
-1.47567e-06
3.39226e-08
-1.50959e-06
3.39222e-08
-1.54348e-06
3.38943e-08
-1.57732e-06
3.3837e-08
-1.61107e-06
3.37488e-08
-1.6447e-06
3.36284e-08
-1.67817e-06
3.34753e-08
-1.71146e-06
3.32889e-08
-1.74453e-06
3.30686e-08
-1.77734e-06
3.28142e-08
-1.80987e-06
3.25253e-08
-1.84207e-06
3.22016e-08
-1.87391e-06
3.18427e-08
-1.90536e-06
3.1448e-08
-1.93638e-06
3.10169e-08
-1.96693e-06
3.05485e-08
-1.99697e-06
3.00416e-08
-2.02646e-06
2.94946e-08
-2.05537e-06
2.89053e-08
-2.08364e-06
2.82711e-08
-2.11123e-06
2.75888e-08
-2.13808e-06
2.68546e-08
-2.16415e-06
2.60645e-08
-2.18936e-06
2.52137e-08
-2.21366e-06
2.42972e-08
-2.23696e-06
2.33097e-08
-2.25921e-06
2.22458e-08
-2.28031e-06
2.11009e-08
-2.30018e-06
1.98706e-08
-2.31873e-06
1.85512e-08
-2.33587e-06
1.71402e-08
-2.35151e-06
1.56365e-08
-2.36555e-06
1.40407e-08
-2.37791e-06
1.23551e-08
-2.38849e-06
1.05838e-08
-2.39722e-06
8.73176e-09
-2.40403e-06
6.80527e-09
-2.40884e-06
4.81094e-09
-2.41159e-06
2.75437e-09
-2.41223e-06
6.37073e-10
-2.4107e-06
-1.52942e-09
-2.40698e-06
-3.71778e-09
-2.40107e-06
-5.91215e-09
-2.39296e-06
-8.11042e-09
-2.38265e-06
-1.03104e-08
-2.37014e-06
-1.25101e-08
-2.35543e-06
-1.47076e-08
-2.33853e-06
-1.69008e-08
-2.31944e-06
-1.90876e-08
-2.29818e-06
-2.12651e-08
-2.27475e-06
-2.34302e-08
-2.24917e-06
-2.55796e-08
-2.22146e-06
-2.771e-08
-2.19164e-06
-2.98176e-08
-2.15974e-06
-3.18985e-08
-2.12579e-06
-3.39494e-08
-2.08982e-06
-3.59671e-08
-2.05188e-06
-3.79478e-08
-2.01199e-06
-3.98874e-08
-1.97021e-06
-4.17824e-08
-1.92658e-06
-4.36297e-08
-1.88115e-06
-4.54254e-08
-1.83399e-06
-4.71644e-08
-1.78514e-06
-4.88419e-08
-1.73469e-06
-5.04542e-08
-1.68269e-06
-5.19975e-08
-1.62922e-06
-5.34672e-08
-1.57437e-06
-5.48598e-08
-1.51819e-06
-5.61728e-08
-1.46079e-06
-5.74016e-08
-1.40225e-06
-5.85404e-08
-1.34267e-06
-5.95844e-08
-1.28214e-06
-6.05291e-08
-1.22077e-06
-6.13719e-08
-1.15866e-06
-6.21111e-08
-1.09592e-06
-6.27415e-08
-1.03266e-06
-6.32569e-08
-9.69003e-07
-6.36547e-08
-9.0507e-07
-6.39332e-08
-8.40977e-07
-6.40928e-08
-7.76845e-07
-6.41307e-08
-7.12805e-07
-6.40397e-08
-6.48976e-07
-6.38284e-08
-5.85484e-07
-6.3492e-08
-5.22459e-07
-6.30242e-08
-4.60032e-07
-6.24264e-08
-3.98343e-07
-6.16884e-08
-3.37553e-07
-6.07908e-08
-2.77828e-07
-5.97244e-08
-2.19383e-07
-5.84459e-08
-1.62526e-07
-5.68571e-08
-1.07589e-07
-5.49387e-08
-5.51893e-08
-5.23995e-08
-5.85847e-09
-4.93325e-08
3.8496e-08
-4.43556e-08
7.79252e-08
-3.94295e-08
-2.33916e-08
1.01316e-07
1.91131e-09
-2.60511e-09
5.23614e-09
-5.28985e-09
8.90609e-09
-6.56501e-09
1.24261e-08
-6.92565e-09
1.55762e-08
-6.70649e-09
1.82554e-08
-6.1155e-09
2.04176e-08
-5.29054e-09
2.20449e-08
-4.32714e-09
2.31338e-08
-3.29163e-09
2.36839e-08
-2.22806e-09
2.36906e-08
-1.16315e-09
2.31404e-08
-1.08838e-10
2.20302e-08
9.16639e-10
2.03672e-08
1.89845e-09
1.81561e-08
2.83584e-09
1.539e-08
3.74409e-09
1.20551e-08
4.63853e-09
8.12821e-09
5.53839e-09
3.56981e-09
6.47161e-09
-1.6709e-09
7.46724e-09
-7.63796e-09
8.54901e-09
-1.43775e-08
9.73903e-09
-2.1939e-08
1.1066e-08
-3.03574e-08
1.25394e-08
-3.9657e-08
1.41515e-08
-4.98445e-08
1.58806e-08
-6.09226e-08
1.77004e-08
-7.28876e-08
1.95877e-08
-8.57232e-08
2.15177e-08
-9.94054e-08
2.34647e-08
-1.13906e-07
2.54039e-08
-1.29192e-07
2.73129e-08
-1.45231e-07
2.91729e-08
-1.61988e-07
3.09688e-08
-1.79425e-07
3.26896e-08
-1.97508e-07
3.4328e-08
-2.162e-07
3.58799e-08
-2.35467e-07
3.73441e-08
-2.55274e-07
3.8722e-08
-2.75591e-07
4.00165e-08
-2.96389e-07
4.12322e-08
-3.17641e-07
4.23748e-08
-3.39324e-07
4.34504e-08
-3.61416e-07
4.44656e-08
-3.839e-07
4.54272e-08
-4.06761e-07
4.63416e-08
-4.29985e-07
4.72152e-08
-4.53563e-07
4.80538e-08
-4.77485e-07
4.88627e-08
-5.01746e-07
4.96466e-08
-5.2634e-07
5.04098e-08
-5.51264e-07
5.11556e-08
-5.76514e-07
5.18872e-08
-6.02089e-07
5.2607e-08
-6.27987e-07
5.33167e-08
-6.54206e-07
5.40178e-08
-6.80747e-07
5.4711e-08
-7.07607e-07
5.53967e-08
-7.34785e-07
5.60747e-08
-7.6228e-07
5.67446e-08
-7.90089e-07
5.74053e-08
-8.1821e-07
5.80555e-08
-8.46639e-07
5.86935e-08
-8.75371e-07
5.93175e-08
-9.04402e-07
5.9925e-08
-9.33726e-07
6.05138e-08
-9.63336e-07
6.10812e-08
-9.93227e-07
6.16244e-08
-1.02339e-06
6.21407e-08
-1.05383e-06
6.26274e-08
-1.08452e-06
6.30824e-08
-1.11548e-06
6.3504e-08
-1.1467e-06
6.3892e-08
-1.17817e-06
6.42478e-08
-1.20989e-06
6.45751e-08
-1.24182e-06
6.48819e-08
-1.2739e-06
6.51918e-08
-1.30596e-06
6.55367e-08
-1.33804e-06
6.58277e-08
-1.37029e-06
6.60085e-08
-1.40263e-06
6.61475e-08
-1.43503e-06
6.6254e-08
-1.46745e-06
6.63215e-08
-1.49987e-06
6.63432e-08
-1.53226e-06
6.63136e-08
-1.5646e-06
6.62285e-08
-1.59684e-06
6.60846e-08
-1.62897e-06
6.58796e-08
-1.66096e-06
6.56115e-08
-1.69276e-06
6.52788e-08
-1.72435e-06
6.48803e-08
-1.7557e-06
6.44151e-08
-1.78677e-06
6.38824e-08
-1.81752e-06
6.32815e-08
-1.84793e-06
6.26115e-08
-1.87796e-06
6.18718e-08
-1.90757e-06
6.1061e-08
-1.93674e-06
6.01778e-08
-1.96541e-06
5.92204e-08
-1.99355e-06
5.81862e-08
-2.02113e-06
5.7072e-08
-2.0481e-06
5.58736e-08
-2.07441e-06
5.45857e-08
-2.10002e-06
5.32021e-08
-2.12489e-06
5.17157e-08
-2.14894e-06
5.01182e-08
-2.17212e-06
4.84004e-08
-2.19438e-06
4.65526e-08
-2.21563e-06
4.45644e-08
-2.23581e-06
4.24259e-08
-2.25484e-06
4.01276e-08
-2.27263e-06
3.76608e-08
-2.2891e-06
3.50185e-08
-2.30415e-06
3.21958e-08
-2.31771e-06
2.91907e-08
-2.32967e-06
2.60041e-08
-2.33996e-06
2.26404e-08
-2.34848e-06
1.91067e-08
-2.35516e-06
1.54133e-08
-2.35993e-06
1.15721e-08
-2.36271e-06
7.59581e-09
-2.36345e-06
3.49563e-09
-2.3621e-06
-7.2063e-10
-2.35861e-06
-5.01503e-09
-2.35299e-06
-9.34017e-09
-2.34522e-06
-1.36801e-08
-2.3353e-06
-1.80273e-08
-2.32324e-06
-2.23772e-08
-2.30902e-06
-2.67258e-08
-2.29266e-06
-3.10694e-08
-2.27416e-06
-3.54037e-08
-2.25352e-06
-3.97241e-08
-2.23076e-06
-4.40251e-08
-2.20589e-06
-4.83009e-08
-2.17892e-06
-5.25449e-08
-2.14988e-06
-5.67501e-08
-2.11879e-06
-6.09092e-08
-2.08568e-06
-6.50152e-08
-2.05056e-06
-6.90612e-08
-2.01349e-06
-7.30401e-08
-1.97449e-06
-7.69446e-08
-1.93361e-06
-8.07675e-08
-1.8909e-06
-8.45018e-08
-1.84639e-06
-8.81402e-08
-1.80014e-06
-9.16747e-08
-1.7522e-06
-9.50966e-08
-1.70265e-06
-9.83967e-08
-1.65154e-06
-1.01566e-07
-1.59894e-06
-1.04597e-07
-1.54492e-06
-1.07482e-07
-1.48957e-06
-1.10214e-07
-1.43296e-06
-1.12785e-07
-1.37517e-06
-1.15188e-07
-1.31629e-06
-1.17413e-07
-1.25643e-06
-1.1945e-07
-1.19567e-06
-1.21289e-07
-1.13411e-06
-1.22925e-07
-1.07187e-06
-1.24353e-07
-1.00905e-06
-1.25565e-07
-9.45756e-07
-1.2655e-07
-8.82111e-07
-1.27301e-07
-8.1823e-07
-1.27815e-07
-7.54231e-07
-1.28094e-07
-6.90233e-07
-1.28129e-07
-6.26361e-07
-1.27912e-07
-5.62735e-07
-1.27455e-07
-4.99477e-07
-1.26751e-07
-4.36713e-07
-1.25788e-07
-3.7457e-07
-1.2457e-07
-3.13184e-07
-1.23074e-07
-2.52702e-07
-1.21273e-07
-1.93282e-07
-1.19144e-07
-1.35115e-07
-1.16612e-07
-7.84207e-08
-1.13551e-07
-2.34831e-08
-1.09875e-07
2.92921e-08
-1.05174e-07
7.92125e-08
-9.92518e-08
1.25859e-07
-9.1e-08
1.67861e-07
-8.14311e-08
-6.25673e-08
2.07037e-07
2.36669e-09
-4.9718e-09
5.6368e-09
-8.5602e-09
8.65221e-09
-9.5805e-09
1.11478e-08
-9.42122e-09
1.3087e-08
-8.64563e-09
1.44798e-08
-7.50814e-09
1.53361e-08
-6.14668e-09
1.56562e-08
-4.64713e-09
1.54302e-08
-3.06545e-09
1.46378e-08
-1.43564e-09
1.32526e-08
2.22092e-10
1.12591e-08
1.88456e-09
8.65723e-09
3.51835e-09
5.43465e-09
5.12077e-09
1.57055e-09
6.6996e-09
-2.9554e-09
8.26966e-09
-8.16102e-09
9.84374e-09
-1.4069e-08
1.1446e-08
-2.07053e-08
1.31076e-08
-2.80931e-08
1.48547e-08
-3.62514e-08
1.67072e-08
-4.51931e-08
1.86806e-08
-5.49118e-08
2.07846e-08
-6.53891e-08
2.30166e-08
-7.66007e-08
2.53629e-08
-8.85213e-08
2.7801e-08
-1.01126e-07
3.03046e-08
-1.14385e-07
3.2847e-08
-1.2827e-07
3.54018e-08
-1.42749e-07
3.79434e-08
-1.57794e-07
4.04485e-08
-1.73378e-07
4.28965e-08
-1.89476e-07
4.52706e-08
-2.06064e-07
4.75574e-08
-2.23122e-07
4.97477e-08
-2.4063e-07
5.18356e-08
-2.58568e-07
5.38188e-08
-2.76921e-07
5.56975e-08
-2.95674e-07
5.74746e-08
-3.14812e-07
5.91548e-08
-3.34324e-07
6.0744e-08
-3.54199e-07
6.22495e-08
-3.74427e-07
6.3679e-08
-3.95002e-07
6.50405e-08
-4.15917e-07
6.6342e-08
-4.37166e-07
6.75913e-08
-4.58747e-07
6.87958e-08
-4.80655e-07
6.99622e-08
-5.02889e-07
7.10966e-08
-5.25447e-07
7.22046e-08
-5.48328e-07
7.32908e-08
-5.71531e-07
7.43592e-08
-5.95057e-07
7.54131e-08
-6.18905e-07
7.64551e-08
-6.43076e-07
7.7487e-08
-6.67568e-07
7.85102e-08
-6.92382e-07
7.95252e-08
-7.17517e-07
8.05322e-08
-7.42973e-07
8.15306e-08
-7.68748e-07
8.25194e-08
-7.9484e-07
8.34973e-08
-8.21247e-07
8.44621e-08
-8.47965e-07
8.54117e-08
-8.74992e-07
8.63435e-08
-9.02321e-07
8.72544e-08
-9.29949e-07
8.81415e-08
-9.57869e-07
8.90014e-08
-9.86076e-07
8.98309e-08
-1.01456e-06
9.06267e-08
-1.04332e-06
9.13859e-08
-1.07234e-06
9.21058e-08
-1.10162e-06
9.27845e-08
-1.13115e-06
9.34209e-08
-1.16092e-06
9.40144e-08
-1.19091e-06
9.4565e-08
-1.2211e-06
9.50738e-08
-1.25145e-06
9.55441e-08
-1.28189e-06
9.59725e-08
-1.31239e-06
9.63289e-08
-1.34299e-06
9.66038e-08
-1.37365e-06
9.68145e-08
-1.40436e-06
9.69634e-08
-1.43509e-06
9.70458e-08
-1.4658e-06
9.70554e-08
-1.49647e-06
9.69863e-08
-1.52708e-06
9.68337e-08
-1.55759e-06
9.65933e-08
-1.58797e-06
9.6262e-08
-1.61819e-06
9.5837e-08
-1.64823e-06
9.53162e-08
-1.67805e-06
9.4698e-08
-1.70761e-06
9.3981e-08
-1.7369e-06
9.31639e-08
-1.76586e-06
9.22457e-08
-1.79447e-06
9.12252e-08
-1.8227e-06
9.01012e-08
-1.85051e-06
8.8872e-08
-1.87787e-06
8.75355e-08
-1.90474e-06
8.6089e-08
-1.93108e-06
8.45288e-08
-1.95686e-06
8.28502e-08
-1.98203e-06
8.1047e-08
-2.00656e-06
7.91115e-08
-2.03039e-06
7.70346e-08
-2.05348e-06
7.48057e-08
-2.07578e-06
7.24127e-08
-2.09722e-06
6.9842e-08
-2.11774e-06
6.70792e-08
-2.13729e-06
6.41093e-08
-2.15578e-06
6.09173e-08
-2.17314e-06
5.7489e-08
-2.18929e-06
5.38115e-08
-2.20415e-06
4.98744e-08
-2.21762e-06
4.56702e-08
-2.22963e-06
4.11957e-08
-2.24008e-06
3.64521e-08
-2.24888e-06
3.14454e-08
-2.25596e-06
2.61863e-08
-2.26124e-06
2.06896e-08
-2.26464e-06
1.49732e-08
-2.2661e-06
9.05555e-09
-2.26555e-06
2.95347e-09
-2.26297e-06
-3.30293e-09
-2.25833e-06
-9.65371e-09
-2.25163e-06
-1.60466e-08
-2.24285e-06
-2.24607e-08
-2.23199e-06
-2.88849e-08
-2.21905e-06
-3.53118e-08
-2.20405e-06
-4.17355e-08
-2.18696e-06
-4.81503e-08
-2.16782e-06
-5.45498e-08
-2.14661e-06
-6.09273e-08
-2.12336e-06
-6.72748e-08
-2.09808e-06
-7.35837e-08
-2.07078e-06
-7.98442e-08
-2.04149e-06
-8.60459e-08
-2.01022e-06
-9.21783e-08
-1.977e-06
-9.82309e-08
-1.94187e-06
-1.04194e-07
-1.90485e-06
-1.10055e-07
-1.86599e-06
-1.15806e-07
-1.82533e-06
-1.21435e-07
-1.78289e-06
-1.26932e-07
-1.73875e-06
-1.32286e-07
-1.69294e-06
-1.37486e-07
-1.64552e-06
-1.42518e-07
-1.59654e-06
-1.4737e-07
-1.54608e-06
-1.52028e-07
-1.4942e-06
-1.5648e-07
-1.44096e-06
-1.60716e-07
-1.38646e-06
-1.64723e-07
-1.33075e-06
-1.68493e-07
-1.27392e-06
-1.72013e-07
-1.21607e-06
-1.75271e-07
-1.15727e-06
-1.78248e-07
-1.09762e-06
-1.80934e-07
-1.03723e-06
-1.83319e-07
-9.76186e-07
-1.85394e-07
-9.14599e-07
-1.87152e-07
-8.52573e-07
-1.88576e-07
-7.9022e-07
-1.89653e-07
-7.27652e-07
-1.90382e-07
-6.64981e-07
-1.90765e-07
-6.02321e-07
-1.90789e-07
-5.39789e-07
-1.90443e-07
-4.775e-07
-1.89745e-07
-4.15568e-07
-1.88683e-07
-3.54111e-07
-1.87244e-07
-2.9325e-07
-1.85432e-07
-2.33108e-07
-1.83217e-07
-1.73816e-07
-1.80565e-07
-1.15518e-07
-1.77442e-07
-5.83759e-08
-1.73754e-07
-2.56305e-09
-1.69364e-07
5.15731e-08
-1.64012e-07
1.03681e-07
-1.57282e-07
1.53455e-07
-1.49026e-07
2.00792e-07
-1.38337e-07
2.45544e-07
-1.26183e-07
-1.07021e-07
2.89998e-07
2.18331e-09
-7.15523e-09
4.51608e-09
-1.08934e-08
6.27068e-09
-1.13353e-08
7.43374e-09
-1.05843e-08
8.03476e-09
-9.24661e-09
8.08951e-09
-7.56278e-09
7.59862e-09
-5.65565e-09
6.55269e-09
-3.60104e-09
4.93289e-09
-1.4455e-09
2.72104e-09
7.76305e-10
-8.381e-11
3.02699e-09
-3.47827e-09
5.27901e-09
-7.47227e-09
7.51227e-09
-1.2082e-08
9.73039e-09
-1.73251e-08
1.19424e-08
-2.32175e-08
1.41618e-08
-2.97793e-08
1.64053e-08
-3.70272e-08
1.86936e-08
-4.49685e-08
2.10487e-08
-5.36026e-08
2.34887e-08
-6.29215e-08
2.60259e-08
-7.29076e-08
2.86666e-08
-8.3533e-08
3.141e-08
-9.47637e-08
3.42473e-08
-1.06563e-07
3.71627e-08
-1.18898e-07
4.01352e-08
-1.31734e-07
4.3141e-08
-1.45043e-07
4.61557e-08
-1.58797e-07
4.91553e-08
-1.72972e-07
5.21177e-08
-1.87546e-07
5.50228e-08
-2.02504e-07
5.78536e-08
-2.17829e-07
6.05963e-08
-2.33512e-07
6.32404e-08
-2.49543e-07
6.57788e-08
-2.65915e-07
6.82078e-08
-2.82622e-07
7.05263e-08
-2.99661e-07
7.27361e-08
-3.17027e-07
7.48408e-08
-3.34718e-07
7.6846e-08
-3.52732e-07
7.87584e-08
-3.71069e-07
8.05857e-08
-3.89725e-07
8.23358e-08
-4.08702e-07
8.40171e-08
-4.27998e-07
8.56379e-08
-4.47612e-07
8.72061e-08
-4.67545e-07
8.87291e-08
-4.87797e-07
9.02139e-08
-5.08367e-07
9.16668e-08
-5.29255e-07
9.30931e-08
-5.50462e-07
9.44977e-08
-5.71987e-07
9.58846e-08
-5.93831e-07
9.72569e-08
-6.15993e-07
9.86172e-08
-6.38474e-07
9.99672e-08
-6.61272e-07
1.01308e-07
-6.84387e-07
1.0264e-07
-7.07818e-07
1.03964e-07
-7.31564e-07
1.05277e-07
-7.55624e-07
1.06579e-07
-7.79995e-07
1.07868e-07
-8.04675e-07
1.09142e-07
-8.29661e-07
1.10397e-07
-8.54949e-07
1.11631e-07
-8.80534e-07
1.1284e-07
-9.06413e-07
1.1402e-07
-9.32578e-07
1.15167e-07
-9.59024e-07
1.16277e-07
-9.85744e-07
1.17347e-07
-1.01273e-06
1.18372e-07
-1.03997e-06
1.19348e-07
-1.06746e-06
1.20273e-07
-1.09518e-06
1.21143e-07
-1.12312e-06
1.21954e-07
-1.15126e-06
1.22704e-07
-1.17958e-06
1.23389e-07
-1.20804e-06
1.24005e-07
-1.23661e-06
1.24545e-07
-1.26528e-06
1.24996e-07
-1.29403e-06
1.25355e-07
-1.32284e-06
1.25627e-07
-1.35169e-06
1.25811e-07
-1.38054e-06
1.259e-07
-1.40938e-06
1.25888e-07
-1.43816e-06
1.25771e-07
-1.46687e-06
1.25542e-07
-1.49547e-06
1.25196e-07
-1.52394e-06
1.2473e-07
-1.55224e-06
1.2414e-07
-1.58035e-06
1.23425e-07
-1.60824e-06
1.22581e-07
-1.63586e-06
1.21608e-07
-1.6632e-06
1.20503e-07
-1.69022e-06
1.19266e-07
-1.71689e-06
1.17894e-07
-1.74318e-06
1.16387e-07
-1.76905e-06
1.14743e-07
-1.79447e-06
1.12958e-07
-1.81941e-06
1.11029e-07
-1.84383e-06
1.08953e-07
-1.86771e-06
1.06721e-07
-1.89099e-06
1.04328e-07
-1.91364e-06
1.01761e-07
-1.93561e-06
9.90112e-08
-1.95687e-06
9.60625e-08
-1.97736e-06
9.28997e-08
-1.99702e-06
8.95046e-08
-2.0158e-06
8.58584e-08
-2.03363e-06
8.19408e-08
-2.05044e-06
7.7732e-08
-2.06617e-06