/*--------------------------------*- C++ -*----------------------------------*\
| =========                 |                                                 |
| \\      /  F ield         | OpenFOAM: The Open Source CFD Toolbox           |
|  \\    /   O peration     | Version:  1.4.2                                 |
|   \\  /    A nd           | Web:      http://www.openfoam.org               |
|    \\/     M anipulation  |                                                 |
\*---------------------------------------------------------------------------*/
FoamFile
{
    version     2.0;
    format      ascii;
    class       volVectorField;
    object      U;
    location    "1000";
}
// * * * * * * * * * * * * * * * * * * * * * * * * * * * * * * * * * * * * * //

dimensions      [0 1 -1 0 0 0 0];

internalField   nonuniform List<vector> 
12225
(
(9.77631 0.0380804 0)
(9.58165 0.0388037 0)
(9.36739 0.0370213 0)
(9.16175 0.036156 0)
(8.97094 0.0352098 0)
(8.79279 0.0340373 0)
(8.62614 0.0327666 0)
(8.47067 0.0314614 0)
(8.32605 0.0301355 0)
(8.19183 0.0287939 0)
(8.06754 0.0274404 0)
(7.95274 0.0260749 0)
(7.84708 0.0246903 0)
(7.75026 0.023267 0)
(7.66217 0.0217583 0)
(7.583 0.0200444 0)
(7.51447 0.0178654 0)
(7.4499 0.00471916 0)
(10.004 0.0585744 0)
(10.0077 0.0555243 0)
(9.98308 0.0518562 0)
(9.95112 0.0514224 0)
(9.91832 0.05114 0)
(9.88422 0.0504763 0)
(9.84882 0.0496359 0)
(9.81268 0.0487092 0)
(9.77629 0.0476954 0)
(9.74 0.0465858 0)
(9.7041 0.0453736 0)
(9.6689 0.0440444 0)
(9.63471 0.0425657 0)
(9.60192 0.0408705 0)
(9.57103 0.0388154 0)
(9.54282 0.0360625 0)
(9.51882 0.0317759 0)
(9.49707 0.0221211 0)
(10.0174 0.0524276 0)
(10.037 0.052668 0)
(10.0383 0.0512369 0)
(10.0338 0.052178 0)
(10.0285 0.0527964 0)
(10.0223 0.0527756 0)
(10.015 0.0524468 0)
(10.007 0.0519537 0)
(9.99854 0.0513139 0)
(9.98984 0.0505249 0)
(9.98101 0.0495786 0)
(9.97219 0.0484499 0)
(9.96355 0.047083 0)
(9.95528 0.0453685 0)
(9.94766 0.043089 0)
(9.94098 0.0397906 0)
(9.93553 0.0344509 0)
(9.92798 0.0245378 0)
(10.0158 0.0449531 0)
(10.0376 0.050126 0)
(10.046 0.0506531 0)
(10.0489 0.0521574 0)
(10.051 0.0531242 0)
(10.0522 0.0534089 0)
(10.0526 0.0533274 0)
(10.0524 0.0530263 0)
(10.052 0.0525351 0)
(10.0513 0.0518567 0)
(10.0506 0.0509818 0)
(10.0499 0.049878 0)
(10.0494 0.048477 0)
(10.0491 0.0466524 0)
(10.0492 0.0441761 0)
(10.0496 0.0406412 0)
(10.0502 0.0353852 0)
(10.0488 0.0275043 0)
(10.0125 0.0370816 0)
(10.0331 0.046147 0)
(10.0446 0.0485721 0)
(10.0509 0.0506804 0)
(10.0561 0.0519768 0)
(10.0603 0.0524996 0)
(10.0638 0.0525766 0)
(10.0668 0.0523718 0)
(10.0694 0.0519316 0)
(10.0719 0.051266 0)
(10.0742 0.0503661 0)
(10.0766 0.0491974 0)
(10.079 0.0476894 0)
(10.0816 0.0457185 0)
(10.0842 0.0430838 0)
(10.087 0.03948 0)
(10.0894 0.0345405 0)
(10.0902 0.0280454 0)
(10.0094 0.0302336 0)
(10.0273 0.041381 0)
(10.0399 0.0454277 0)
(10.0483 0.0482088 0)
(10.0552 0.0498968 0)
(10.0612 0.0506943 0)
(10.0664 0.0509471 0)
(10.071 0.0508401 0)
(10.0752 0.0504434 0)
(10.0792 0.0497812 0)
(10.0831 0.0488507 0)
(10.0869 0.0476207 0)
(10.0907 0.0460259 0)
(10.0945 0.0439592 0)
(10.0982 0.0412634 0)
(10.1017 0.0377374 0)
(10.1047 0.0332169 0)
(10.1065 0.0277827 0)
(10.0067 0.024477 0)
(10.0216 0.0363808 0)
(10.0341 0.04158 0)
(10.0434 0.0449274 0)
(10.0514 0.0470051 0)
(10.0585 0.0480993 0)
(10.0648 0.0485527 0)
(10.0705 0.0485658 0)
(10.0757 0.0482297 0)
(10.0807 0.0475836 0)
(10.0855 0.046634 0)
(10.0901 0.0453585 0)
(10.0946 0.0437052 0)
(10.099 0.041592 0)
(10.1032 0.0389107 0)
(10.1071 0.0355479 0)
(10.1104 0.0314626 0)
(10.1127 0.0268392 0)
(10.005 0.0203572 0)
(10.0173 0.0322039 0)
(10.0291 0.0380035 0)
(10.0386 0.0417042 0)
(10.047 0.0440425 0)
(10.0546 0.0453493 0)
(10.0614 0.0459605 0)
(10.0677 0.0460795 0)
(10.0735 0.0458066 0)
(10.0791 0.0451896 0)
(10.0844 0.044243 0)
(10.0894 0.0429541 0)
(10.0943 0.0412858 0)
(10.099 0.0391799 0)
(10.1034 0.036568 0)
(10.1074 0.033394 0)
(10.1109 0.0296765 0)
(10.1135 0.0256158 0)
(10.0039 0.0172031 0)
(10.0141 0.0286191 0)
(10.0249 0.0347117 0)
(10.0342 0.0386383 0)
(10.0426 0.0411562 0)
(10.0504 0.0426194 0)
(10.0576 0.0433523 0)
(10.0642 0.0435561 0)
(10.0704 0.0433368 0)
(10.0763 0.0427493 0)
(10.0819 0.0418153 0)
(10.0873 0.040531 0)
(10.0924 0.0388721 0)
(10.0972 0.0368016 0)
(10.1018 0.034281 0)
(10.1059 0.0312933 0)
(10.1094 0.0278886 0)
(10.1122 0.0242605 0)
(10.0029 0.0143481 0)
(10.0112 0.0249748 0)
(10.0209 0.0311252 0)
(10.0297 0.0351567 0)
(10.0379 0.0377897 0)
(10.0457 0.0393726 0)
(10.0529 0.0402069 0)
(10.0597 0.0404863 0)
(10.0662 0.0403193 0)
(10.0723 0.039766 0)
(10.0781 0.0388547 0)
(10.0836 0.0375913 0)
(10.0888 0.0359659 0)
(10.0938 0.0339615 0)
(10.0984 0.0315665 0)
(10.1025 0.0287926 0)
(10.1061 0.0257054 0)
(10.1092 0.0224826 0)
(10.0021 0.0117903 0)
(10.0088 0.0213559 0)
(10.0171 0.0273278 0)
(10.0253 0.0313183 0)
(10.0331 0.0339745 0)
(10.0406 0.0356178 0)
(10.0478 0.0365154 0)
(10.0546 0.0368477 0)
(10.061 0.0367222 0)
(10.0672 0.0362019 0)
(10.073 0.0353213 0)
(10.0786 0.0340957 0)
(10.0839 0.032529 0)
(10.0889 0.0306224 0)
(10.0934 0.028385 0)
(10.0976 0.0258473 0)
(10.1012 0.0230793 0)
(10.1044 0.0202359 0)
(10.0015 0.00952604 0)
(10.0068 0.0178388 0)
(10.0139 0.0234005 0)
(10.0212 0.0271978 0)
(10.0284 0.0297686 0)
(10.0355 0.0313949 0)
(10.0424 0.0323023 0)
(10.049 0.0326526 0)
(10.0554 0.0325483 0)
(10.0614 0.0320533 0)
(10.0672 0.0312067 0)
(10.0727 0.0300324 0)
(10.0779 0.0285463 0)
(10.0828 0.0267639 0)
(10.0873 0.0247086 0)
(10.0913 0.0224208 0)
(10.095 0.0199669 0)
(10.0982 0.0174762 0)
(10.0011 0.00753217 0)
(10.0052 0.0144787 0)
(10.0111 0.0194171 0)
(10.0176 0.0228686 0)
(10.0242 0.0252378 0)
(10.0308 0.026758 0)
(10.0372 0.0276117 0)
(10.0435 0.0279367 0)
(10.0496 0.0278266 0)
(10.0554 0.0273437 0)
(10.061 0.0265302 0)
(10.0663 0.0254163 0)
(10.0713 0.0240268 0)
(10.076 0.0223869 0)
(10.0803 0.0205281 0)
(10.0843 0.018493 0)
(10.0878 0.0163404 0)
(10.0911 0.0141748 0)
(10.0009 0.00576545 0)
(10.0041 0.0112984 0)
(10.009 0.0154333 0)
(10.0146 0.0183913 0)
(10.0205 0.0204412 0)
(10.0265 0.0217618 0)
(10.0324 0.0224929 0)
(10.0383 0.022745 0)
(10.044 0.022599 0)
(10.0495 0.0221125 0)
(10.0548 0.0213281 0)
(10.0598 0.0202793 0)
(10.0645 0.018996 0)
(10.069 0.0175082 0)
(10.0731 0.0158498 0)
(10.0769 0.0140608 0)
(10.0803 0.0121904 0)
(10.0835 0.0103212 0)
(10.0007 0.00417177 0)
(10.0032 0.00828517 0)
(10.0073 0.0114767 0)
(10.0121 0.0138034 0)
(10.0174 0.0154193 0)
(10.0228 0.0164469 0)
(10.0283 0.0169848 0)
(10.0337 0.0171151 0)
(10.039 0.0169022 0)
(10.0441 0.0163955 0)
(10.049 0.0156344 0)
(10.0537 0.0146519 0)
(10.0582 0.0134787 0)
(10.0623 0.012145 0)
(10.0662 0.0106827 0)
(10.0698 0.00912634 0)
(10.0731 0.0075154 0)
(10.0761 0.00591429 0)
(10.0005 0.00269176 0)
(10.0026 0.00539068 0)
(10.0061 0.00753274 0)
(10.0103 0.00910536 0)
(10.0149 0.0101789 0)
(10.0198 0.0108231 0)
(10.0248 0.0110984 0)
(10.0298 0.011058 0)
(10.0347 0.0107469 0)
(10.0395 0.0102026 0)
(10.044 0.009457 0)
(10.0484 0.00853875 0)
(10.0526 0.00747483 0)
(10.0564 0.00629182 0)
(10.0601 0.00501657 0)
(10.0635 0.00367684 0)
(10.0666 0.00230279 0)
(10.0695 0.00094387 0)
(10.0005 0.00126007 0)
(10.0023 0.00253006 0)
(10.0053 0.00353554 0)
(10.009 0.00424727 0)
(10.0133 0.0046804 0)
(10.0177 0.00485872 0)
(10.0223 0.00480677 0)
(10.0269 0.00454906 0)
(10.0315 0.00410904 0)
(10.0359 0.00350855 0)
(10.0402 0.0027681 0)
(10.0443 0.00190772 0)
(10.0481 0.00094723 0)
(10.0518 -9.3543e-05 0)
(10.0552 -0.00119478 0)
(10.0584 -0.00233633 0)
(10.0613 -0.00349617 0)
(10.0642 -0.00463654 0)
(10.0004 -0.000123602 0)
(10.0021 -0.000259781 0)
(10.005 -0.000403027 0)
(10.0085 -0.000580198 0)
(10.0125 -0.000817551 0)
(10.0168 -0.00113237 0)
(10.0211 -0.00153382 0)
(10.0255 -0.00202538 0)
(10.0298 -0.00260612 0)
(10.034 -0.00327161 0)
(10.0381 -0.00401456 0)
(10.0419 -0.00482577 0)
(10.0456 -0.0056946 0)
(10.0491 -0.00660939 0)
(10.0523 -0.00755791 0)
(10.0554 -0.00852736 0)
(10.0582 -0.00950291 0)
(10.0609 -0.0104567 0)
(10.0004 -0.00143754 0)
(10.0022 -0.00289363 0)
(10.0052 -0.00409591 0)
(10.0088 -0.00507857 0)
(10.0128 -0.00591489 0)
(10.0171 -0.00666397 0)
(10.0214 -0.00736789 0)
(10.0257 -0.00805721 0)
(10.0299 -0.00875283 0)
(10.034 -0.00946723 0)
(10.0379 -0.0102064 0)
(10.0416 -0.0109715 0)
(10.0452 -0.0117605 0)
(10.0486 -0.0125691 0)
(10.0517 -0.0133915 0)
(10.0547 -0.0142207 0)
(10.0575 -0.0150471 0)
(10.0601 -0.0158505 0)
(10.0005 -0.00274175 0)
(10.0026 -0.00545007 0)
(10.0059 -0.00759169 0)
(10.0098 -0.00925009 0)
(10.014 -0.0105696 0)
(10.0184 -0.011656 0)
(10.0228 -0.0125844 0)
(10.0271 -0.0134117 0)
(10.0313 -0.0141791 0)
(10.0354 -0.0149137 0)
(10.0393 -0.0156327 0)
(10.043 -0.0163459 0)
(10.0465 -0.0170583 0)
(10.0498 -0.0177713 0)
(10.0529 -0.0184844 0)
(10.0559 -0.019195 0)
(10.0586 -0.0198978 0)
(10.0612 -0.0205782 0)
(10.0007 -0.00415336 0)
(10.0032 -0.0081096 0)
(10.0071 -0.0110783 0)
(10.0115 -0.0132791 0)
(10.0161 -0.0149635 0)
(10.0207 -0.016287 0)
(10.0253 -0.0173579 0)
(10.0297 -0.0182594 0)
(10.034 -0.0190508 0)
(10.0381 -0.0197716 0)
(10.042 -0.0204475 0)
(10.0456 -0.0210951 0)
(10.0491 -0.0217245 0)
(10.0524 -0.0223417 0)
(10.0554 -0.02295 0)
(10.0583 -0.0235504 0)
(10.0609 -0.0241412 0)
(10.0635 -0.0247128 0)
(10.0009 -0.0057986 0)
(10.0043 -0.0110212 0)
(10.009 -0.0146744 0)
(10.014 -0.0172664 0)
(10.019 -0.0191893 0)
(10.0239 -0.0206437 0)
(10.0287 -0.0217708 0)
(10.0332 -0.0226791 0)
(10.0376 -0.0234435 0)
(10.0417 -0.0241125 0)
(10.0455 -0.024718 0)
(10.0491 -0.025281 0)
(10.0525 -0.0258149 0)
(10.0557 -0.0263288 0)
(10.0586 -0.0268286 0)
(10.0613 -0.0273184 0)
(10.0639 -0.0277995 0)
(10.0663 -0.0282674 0)
(10.0014 -0.00783045 0)
(10.0059 -0.0143057 0)
(10.0117 -0.0184324 0)
(10.0174 -0.0212352 0)
(10.0228 -0.0232573 0)
(10.028 -0.024728 0)
(10.0328 -0.0258199 0)
(10.0374 -0.0266657 0)
(10.0417 -0.027351 0)
(10.0457 -0.0279298 0)
(10.0494 -0.0284371 0)
(10.0528 -0.0288959 0)
(10.056 -0.0293214 0)
(10.059 -0.0297234 0)
(10.0617 -0.0301094 0)
(10.0643 -0.0304853 0)
(10.0666 -0.0308556 0)
(10.0688 -0.0312214 0)
(10.0021 -0.0104371 0)
(10.0083 -0.0180398 0)
(10.0153 -0.0223262 0)
(10.0216 -0.0251253 0)
(10.0272 -0.0270929 0)
(10.0325 -0.0284594 0)
(10.0373 -0.0294268 0)
(10.0417 -0.0301463 0)
(10.0457 -0.0307081 0)
(10.0494 -0.0311659 0)
(10.0528 -0.0315543 0)
(10.0559 -0.0318956 0)
(10.0588 -0.0322041 0)
(10.0614 -0.0324892 0)
(10.0639 -0.0327579 0)
(10.0661 -0.033017 0)
(10.0681 -0.0332739 0)
(10.0699 -0.0335367 0)
(10.0033 -0.0138404 0)
(10.0116 -0.0222153 0)
(10.0198 -0.0262292 0)
(10.0263 -0.0287882 0)
(10.0318 -0.0305485 0)
(10.0368 -0.0317017 0)
(10.0412 -0.0324704 0)
(10.0451 -0.0330145 0)
(10.0486 -0.0334209 0)
(10.0518 -0.0337388 0)
(10.0546 -0.0339991 0)
(10.0572 -0.0342208 0)
(10.0596 -0.0344154 0)
(10.0617 -0.0345895 0)
(10.0637 -0.0347475 0)
(10.0654 -0.0348943 0)
(10.067 -0.035039 0)
(10.0684 -0.0351978 0)
(10.005 -0.0182968 0)
(10.0159 -0.0266622 0)
(10.0247 -0.0298718 0)
(10.0307 -0.0319703 0)
(10.0355 -0.0333913 0)
(10.0397 -0.0342482 0)
(10.0432 -0.0347746 0)
(10.0462 -0.0351262 0)
(10.0488 -0.0353751 0)
(10.0511 -0.0355585 0)
(10.0532 -0.0356997 0)
(10.055 -0.0358127 0)
(10.0566 -0.0359049 0)
(10.058 -0.0359789 0)
(10.0592 -0.0360346 0)
(10.0602 -0.0360717 0)
(10.061 -0.0360968 0)
(10.0617 -0.0361308 0)
(10.0075 -0.024126 0)
(10.0207 -0.0310256 0)
(10.0287 -0.0328182 0)
(10.0331 -0.0343208 0)
(10.0363 -0.0353679 0)
(10.0389 -0.035923 0)
(10.0409 -0.0362167 0)
(10.0424 -0.036392 0)
(10.0435 -0.0365013 0)
(10.0443 -0.0365674 0)
(10.0449 -0.0366049 0)
(10.0452 -0.0366229 0)
(10.0455 -0.036625 0)
(10.0455 -0.03661 0)
(10.0454 -0.0365727 0)
(10.0452 -0.0365037 0)
(10.0448 -0.0363983 0)
(10.0442 -0.0362649 0)
(10.0101 -0.0307463 0)
(10.0238 -0.0344089 0)
(10.0287 -0.0343641 0)
(10.0292 -0.0352387 0)
(10.0289 -0.0359403 0)
(10.028 -0.0362275 0)
(10.0266 -0.0363112 0)
(10.0246 -0.0363185 0)
(10.0223 -0.0362851 0)
(10.0199 -0.0362244 0)
(10.0172 -0.0361465 0)
(10.0144 -0.0360577 0)
(10.0116 -0.0359595 0)
(10.0086 -0.0358483 0)
(10.0056 -0.0357136 0)
(10.0025 -0.035533 0)
(9.9994 -0.0352724 0)
(9.99596 -0.0348678 0)
(10.0062 -0.0364084 0)
(10.0142 -0.0379479 0)
(10.0067 -0.0361136 0)
(9.99423 -0.035977 0)
(9.9816 -0.0360003 0)
(9.96877 -0.0357939 0)
(9.95554 -0.0354982 0)
(9.9421 -0.0351997 0)
(9.92863 -0.0349107 0)
(9.91524 -0.0346287 0)
(9.90195 -0.0343532 0)
(9.88882 -0.0340835 0)
(9.87586 -0.0338173 0)
(9.86312 -0.033549 0)
(9.8506 -0.0332667 0)
(9.83834 -0.0329402 0)
(9.82639 -0.0325012 0)
(9.81418 -0.0315635 0)
(9.89292 -0.0248311 0)
(9.80337 -0.0270762 0)
(9.69906 -0.0264884 0)
(9.59607 -0.0263393 0)
(9.49955 -0.0261468 0)
(9.40855 -0.025801 0)
(9.32223 -0.0253942 0)
(9.24034 -0.0249804 0)
(9.16271 -0.0245721 0)
(9.08912 -0.0241709 0)
(9.01935 -0.0237773 0)
(8.95319 -0.0233914 0)
(8.89043 -0.0230123 0)
(8.8309 -0.0226377 0)
(8.77445 -0.0222624 0)
(8.72095 -0.0218706 0)
(8.67049 -0.0214152 0)
(8.62154 -0.0205384 0)
(0.000220284 -0.000336011 0)
(0.00129145 -0.00130357 0)
(0.00348972 -0.00232637 0)
(0.00635602 -0.00308839 0)
(0.00949858 -0.00348763 0)
(0.0126382 -0.00355606 0)
(0.0155779 -0.0033684 -5.95902e-19)
(0.0181838 -0.00300106 5.74717e-19)
(0.0203735 -0.00252203 0)
(0.0221055 -0.00199139 5.45961e-19)
(0.0233706 -0.00145967 0)
(0.0241828 -0.000962088 0)
(0.0245672 -0.000515821 0)
(0.0245523 -0.000125678 -5.1819e-19)
(0.0241724 0.000206061 0)
(0.0234646 0.00048126 0)
(0.0224567 0.000706917 5.00273e-19)
(0.0211682 0.000889797 0)
(0.0196108 0.00103656 0)
(0.0177824 0.00116323 0)
(0.0156547 0.00130976 -4.76265e-19)
(0.0131891 0.00151967 0)
(0.0103197 0.00184071 -4.80079e-19)
(0.00695481 0.00231455 0)
(0.00300878 0.00294732 0)
(-0.00172713 0.00372297 -5.12651e-19)
(-0.00720914 0.0045762 0)
(-0.0135615 0.00550103 4.70574e-19)
(-0.0208545 0.00649332 0)
(-0.0291287 0.00753394 -4.20168e-19)
(-0.0384124 0.00859751 0)
(-0.048717 0.00965935 0)
(-0.0600372 0.0106982 0)
(-0.0723541 0.0116973 0)
(-0.085638 0.0126448 0)
(-0.0998515 0.013533 2.78248e-19)
(-0.114952 0.0143577 0)
(-0.130895 0.0151179 -4.83764e-19)
(-0.147634 0.0158144 0)
(-0.165123 0.0164496 4.22721e-19)
(-0.183319 0.0170272 0)
(-0.202179 0.0175513 0)
(-0.221664 0.0180266 -3.49746e-19)
(-0.241738 0.0184578 0)
(-0.262368 0.0188496 -3.11083e-19)
(-0.283526 0.0192066 2.94185e-19)
(-0.305185 0.0195331 0)
(-0.327323 0.0198328 2.64471e-19)
(-0.34992 0.0201094 2.51384e-19)
(-0.37296 0.0203659 0)
(-0.396428 0.020605 0)
(-0.420314 0.0208289 0)
(-0.444607 0.0210395 0)
(-0.469299 0.0212383 0)
(-0.494383 0.0214263 -1.91182e-19)
(-0.519852 0.0216043 0)
(-0.545701 0.0217726 1.76295e-19)
(-0.571926 0.0219313 0)
(-0.598521 0.02208 0)
(-0.625482 0.0222179 -1.5737e-19)
(-0.652805 0.0223439 0)
(-0.680485 0.0224561 1.46601e-19)
(-0.708516 0.0225527 0)
(-0.736891 0.0226308 0)
(-0.765601 0.0226874 0)
(-0.794637 0.0227183 -1.28527e-19)
(-0.823986 0.0227189 0)
(-0.853635 0.0226836 0)
(-0.883567 0.0226059 -1.17375e-19)
(-0.913763 0.0224788 0)
(-0.944199 0.0222959 -1.10856e-19)
(-0.974851 0.0220536 0)
(-1.00569 0.0217556 0)
(-1.03669 0.0214217 0)
(-1.06782 0.0211023 9.95499e-20)
(-1.09908 0.0209049 0)
(-1.13056 0.0210485 0)
(-1.1623 0.0219533 9.19401e-20)
(-1.19442 0.0226027 8.97292e-20)
(-1.22674 0.0225136 0)
(-1.25914 0.0224286 8.57791e-20)
(-1.29164 0.0223544 0)
(-1.32426 0.022277 1.64301e-19)
(-1.35697 0.0221891 0)
(-1.38977 0.0220869 1.57606e-19)
(-1.42261 0.0219683 0)
(-1.45549 0.0218324 -1.51412e-19)
(-1.48837 0.0216784 0)
(-1.52122 0.0215059 0)
(-1.55402 0.0213147 0)
(-1.58673 0.0211048 1.40313e-19)
(-1.61932 0.0208761 0)
(-1.65177 0.0206287 -1.35314e-19)
(-1.68403 0.0203627 0)
(-1.71608 0.020078 1.30626e-19)
(-1.74789 0.0197748 1.28387e-19)
(-1.77941 0.0194528 1.26212e-19)
(-1.81062 0.019112 0)
(-1.84149 0.0187519 0)
(-1.87197 0.0183721 0)
(-1.90203 0.0179718 0)
(-1.93163 0.01755 0)
(-1.96073 0.0171054 0)
(-1.98928 0.0166363 0)
(-2.01724 0.0161409 0)
(-2.04454 0.0156172 -1.08811e-19)
(-2.07115 0.0150628 -1.0705e-19)
(-2.09699 0.0144753 0)
(-2.122 0.0138523 0)
(-2.1461 0.0131913 0)
(-2.16922 0.0124905 -1.00189e-19)
(-2.19128 0.011748 0)
(-2.21218 0.0109628 0)
(-2.23184 0.0101342 0)
(-2.25017 0.00926267 0)
(-2.26707 0.00834926 9.17969e-20)
(-2.28245 0.00739604 0)
(-2.29622 0.00640573 0)
(-2.3083 0.00538155 -8.67182e-20)
(-2.31859 0.00432699 8.50008e-20)
(-2.32704 0.00324546 0)
(-2.33357 0.00213899 8.15125e-20)
(-2.33811 0.00100771 0)
(-2.3406 -0.000139215 -7.78951e-20)
(-2.34099 -0.00128436 0)
(-2.33928 -0.00242092 0)
(-2.33544 -0.00355135 0)
(-2.32947 -0.00467594 0)
(-2.32135 -0.0057942 0)
(-2.31109 -0.00690536 1.3213e-19)
(-2.29867 -0.00800868 1.27899e-19)
(-2.28409 -0.0091033 0)
(-2.26736 -0.0101882 0)
(-2.24846 -0.0112621 0)
(-2.22741 -0.0123238 -1.09973e-19)
(-2.20421 -0.0133719 0)
(-2.17888 -0.014405 0)
(-2.15143 -0.0154217 0)
(-2.12188 -0.0164206 -9.0239e-20)
(-2.09026 -0.0174006 8.49957e-20)
(-2.05657 -0.0183603 0)
(-2.02087 -0.0192981 0)
(-1.98317 -0.0202125 6.8476e-20)
(-1.94352 -0.0211023 6.26984e-20)
(-1.90195 -0.0219659 0)
(-1.85851 -0.0228014 0)
(-1.81325 -0.0236068 -4.4529e-20)
(-1.76622 -0.0243804 3.81907e-20)
(-1.71748 -0.0251207 0)
(-1.6671 -0.0258261 0)
(-1.61513 -0.0264951 1.83299e-20)
(-1.56165 -0.0271261 0)
(-1.50674 -0.0277174 0)
(-1.45046 -0.0282665 -2.77216e-21)
(-1.39291 -0.0287707 0)
(-1.33418 -0.0292281 -1.74914e-20)
(-1.27435 -0.029637 0)
(-1.21353 -0.0299961 0)
(-1.15182 -0.0303031 0)
(-1.08932 -0.0305545 4.8298e-20)
(-1.02615 -0.0307484 0)
(-0.962425 -0.030884 0)
(-0.898258 -0.0309604 0)
(-0.833769 -0.0309748 0)
(-0.769085 -0.0309244 0)
(-0.704331 -0.0308117 0)
(-0.639629 -0.0306338 1.05051e-19)
(-0.575112 -0.0303865 1.13258e-19)
(-0.510912 -0.0300702 0)
(-0.447168 -0.0296774 0)
(-0.384041 -0.0291999 0)
(-0.321689 -0.0286327 -1.45815e-19)
(-0.260322 -0.0279481 0)
(-0.200238 -0.0271115 3.23688e-19)
(-0.141659 -0.0261139 -3.39676e-19)
(-0.0852928 -0.024825 -3.5592e-19)
(-0.0313066 -0.0233928 3.73535e-19)
(0.0176024 -0.0210323 -3.88375e-19)
(0.0660659 -0.0186308 3.96796e-19)
(0.0911265 -0.0108256 0)
(0.000633702 -0.00277621 0)
(0.00306854 -0.00655065 0)
(0.00624989 -0.00887108 1.1083e-18)
(0.0094851 -0.00988113 0)
(0.0124691 -0.00992029 -7.60685e-19)
(0.0150686 -0.00929661 -6.68127e-19)
(0.0172243 -0.00825083 -3.0181e-19)
(0.0189114 -0.00696093 -2.79379e-19)
(0.020123 -0.00555373 0)
(0.0208594 -0.00411688 -2.55708e-19)
(0.0211194 -0.00270855 0)
(0.0208955 -0.00136059 0)
(0.0201638 -8.95275e-05 5.00112e-19)
(0.0189395 0.00108497 2.50904e-19)
(0.0172288 0.00215624 -5.05132e-19)
(0.0150269 0.00314055 -5.09912e-19)
(0.0123244 0.00406628 -2.57823e-19)
(0.00910629 0.00496398 0)
(0.00534919 0.00587125 0)
(0.00100349 0.00683401 0)
(-0.00399992 0.00790101 -2.63138e-19)
(-0.0096448 0.00910291 0)
(-0.0160179 0.0104925 7.37652e-19)
(-0.023152 0.0120972 0)
(-0.0310711 0.0139087 0)
(-0.0397937 0.0158817 2.15579e-19)
(-0.0493195 0.0179696 0)
(-0.0596543 0.0201447 -1.94294e-19)
(-0.0707892 0.0223722 -3.67614e-19)
(-0.0827068 0.0246131 1.73681e-19)
(-0.0953848 0.0268297 0)
(-0.108797 0.028989 0)
(-0.122917 0.0310642 0)
(-0.137713 0.033035 -2.7497e-19)
(-0.153154 0.0348877 -2.59452e-19)
(-0.16921 0.036614 -1.22517e-19)
(-0.18585 0.0382105 0)
(-0.203041 0.0396774 2.18989e-19)
(-0.220756 0.0410184 0)
(-0.238965 0.0422391 -1.96502e-19)
(-0.257643 0.043347 0)
(-0.276766 0.0443504 0)
(-0.296312 0.0452583 1.68439e-19)
(-0.316264 0.0460801 0)
(-0.336603 0.0468248 4.5847e-19)
(-0.357316 0.0475013 -1.45888e-19)
(-0.378392 0.0481178 0)
(-0.399821 0.048682 -1.33302e-19)
(-0.421595 0.0492008 -1.27629e-19)
(-0.443709 0.0496804 0)
(-0.466159 0.050126 0)
(-0.488941 0.0505422 0)
(-0.512055 0.050933 0)
(-0.535498 0.0513016 0)
(-0.559271 0.0516505 1.00399e-19)
(-0.583373 0.0519818 1.93379e-19)
(-0.607804 0.052297 -9.33679e-20)
(-0.632564 0.0525969 0)
(-0.657653 0.0528822 1.74066e-19)
(-0.683072 0.053153 -8.40788e-20)
(-0.708819 0.0534091 0)
(-0.734894 0.0536498 -7.90069e-20)
(-0.761294 0.0538744 0)
(-0.788018 0.0540819 0)
(-0.815063 0.0542712 -1.44083e-19)
(-0.842424 0.054441 7.00865e-20)
(-0.870097 0.0545898 -1.3609e-19)
(-0.898078 0.0547164 1.32405e-19)
(-0.926362 0.0548191 6.45557e-20)
(-0.954944 0.0548963 0)
(-0.983823 0.054946 6.13452e-20)
(-1.01299 0.0549661 0)
(-1.04246 0.0549537 0)
(-1.07222 0.0549051 0)
(-1.10226 0.0548136 5.57696e-20)
(-1.13258 0.0546687 0)
(-1.16313 0.0544644 1.06997e-19)
(-1.19379 0.0542289 -1.56904e-19)
(-1.22449 0.0539939 -5.11293e-20)
(-1.25534 0.0537458 0)
(-1.28639 0.0535001 -4.87732e-20)
(-1.31756 0.0532471 0)
(-1.34884 0.0529735 -9.31758e-20)
(-1.38019 0.0526704 0)
(-1.41159 0.0523327 -8.91228e-20)
(-1.44302 0.0519573 1.74003e-19)
(-1.47445 0.0515422 8.53579e-20)
(-1.50585 0.0510864 0)
(-1.53719 0.0505893 0)
(-1.56845 0.0500509 0)
(-1.5996 0.0494712 -7.85808e-20)
(-1.6306 0.0488506 0)
(-1.66143 0.0481893 7.55189e-20)
(-1.69205 0.0474879 0)
(-1.72243 0.0467469 -2.17554e-19)
(-1.75255 0.0459666 -7.12708e-20)
(-1.78236 0.0451472 -6.99362e-20)
(-1.81183 0.0442887 0)
(-1.84094 0.0433907 0)
(-1.86963 0.0424526 0)
(-1.89789 0.0414731 0)
(-1.92566 0.0404506 0)
(-1.95291 0.0393826 -1.2489e-19)
(-1.97958 0.0382662 -1.22636e-19)
(-2.00564 0.0370977 0)
(-2.03104 0.0358732 5.92661e-20)
(-2.0557 0.034588 5.81854e-20)
(-2.07959 0.0332374 0)
(-2.10262 0.0318163 1.11868e-19)
(-2.12473 0.0303201 0)
(-2.14585 0.0287445 -5.3748e-20)
(-2.16589 0.027086 0)
(-2.18477 0.0253421 0)
(-2.2024 0.0235119 1.0156e-19)
(-2.21869 0.021596 0)
(-2.23355 0.019597 -4.87963e-20)
(-2.2469 0.0175194 0)
(-2.25863 0.0153693 0)
(-2.26868 0.0131545 -4.56192e-20)
(-2.27696 0.0108834 -4.46257e-20)
(-2.28339 0.0085649 0)
(-2.28791 0.00620542 4.25228e-20)
(-2.29046 0.00380773 0)
(-2.29096 0.00139211 -4.03743e-20)
(-2.28942 -0.00101191 -7.84331e-20)
(-2.28581 -0.00339308 0)
(-2.28013 -0.00574738 0)
(-2.27235 -0.00807252 0)
(-2.26248 -0.0103669 0)
(-2.2505 -0.0126289 -6.6549e-20)
(-2.23642 -0.0148568 -1.9276e-19)
(-2.22022 -0.0170486 0)
(-2.20191 -0.0192023 0)
(-2.18149 -0.0213153 0)
(-2.15897 -0.0233849 5.38622e-20)
(-2.13435 -0.0254084 0)
(-2.10765 -0.0273828 0)
(-2.07888 -0.0293054 -9.23959e-20)
(-2.04806 -0.0311737 -4.38924e-20)
(-2.01521 -0.0329854 -4.02061e-20)
(-1.98036 -0.0347378 0)
(-1.94354 -0.0364286 0)
(-1.90478 -0.0380553 -3.1598e-20)
(-1.86411 -0.0396158 2.97736e-20)
(-1.82158 -0.0411077 0)
(-1.77723 -0.0425279 0)
(-1.73111 -0.0438735 1.97759e-20)
(-1.68327 -0.0451421 -5.16054e-20)
(-1.63377 -0.0463313 0)
(-1.58268 -0.0474392 0)
(-1.53005 -0.048464 -7.78535e-21)
(-1.47596 -0.0494042 0)
(-1.42048 -0.050258 -5.05928e-21)
(-1.3637 -0.0510224 3.08376e-22)
(-1.30569 -0.0516943 0)
(-1.24654 -0.0522717 6.96458e-21)
(-1.18634 -0.0527534 1.81504e-20)
(-1.12521 -0.053139 0)
(-1.06323 -0.0534269 0)
(-1.00051 -0.0536139 -1.81521e-20)
(-0.937156 -0.0536982 0)
(-0.873293 -0.0536809 4.52977e-20)
(-0.809032 -0.0535638 0)
(-0.744489 -0.0533452 0)
(-0.679787 -0.0530222 0)
(-0.61505 -0.0526022 0)
(-0.550398 -0.0520834 -3.54622e-20)
(-0.485958 -0.051462 -3.76569e-20)
(-0.421863 -0.0507411 0)
(-0.358243 -0.049912 0)
(-0.295252 -0.0489651 0)
(-0.233036 -0.0478925 4.57759e-20)
(-0.17179 -0.0466588 0)
(-0.111754 -0.0452203 -9.90596e-20)
(-0.0530871 -0.0435414 1.02724e-19)
(0.00366561 -0.0414368 1.06009e-19)
(0.0583672 -0.0388574 1.06285e-19)
(0.108972 -0.0352734 1.11155e-19)
(0.158931 -0.03103 1.12143e-19)
(0.195852 -0.0224254 0)
(0.000883209 -0.00721175 0)
(0.00360256 -0.013373 0)
(0.00641797 -0.0156137 -8.2468e-19)
(0.00885803 -0.0157468 -6.36131e-19)
(0.0108243 -0.0147228 5.30294e-19)
(0.0123039 -0.0130297 4.67475e-19)
(0.0133056 -0.0109468 2.56415e-24)
(0.0138346 -0.00865259 0)
(0.0138866 -0.00626527 0)
(0.0134486 -0.00385771 0)
(0.0125 -0.00146736 0)
(0.0109982 0.00088725 0)
(0.00896739 0.00316106 -1.13053e-18)
(0.0063902 0.0053366 0)
(0.00325475 0.00742346 3.78261e-19)
(-0.000473823 0.00945446 3.77309e-19)
(-0.0048005 0.0114479 0)
(-0.00973891 0.0134405 0)
(-0.0153212 0.0154877 0)
(-0.02157 0.017636 0)
(-0.0285059 0.0199185 3.33996e-19)
(-0.0361426 0.0223657 0)
(-0.0444875 0.0250007 -3.10549e-19)
(-0.0535285 0.0278208 0)
(-0.0632464 0.0308024 0)
(-0.0736198 0.0339064 0)
(-0.0846277 0.0370886 -5.17798e-19)
(-0.0962474 0.0403052 0)
(-0.108453 0.0435136 2.33786e-19)
(-0.121219 0.0466734 -4.43617e-19)
(-0.134518 0.049748 0)
(-0.148329 0.0527059 0)
(-0.162627 0.0555223 0)
(-0.177393 0.0581785 1.79605e-19)
(-0.192608 0.0606624 1.70501e-19)
(-0.208254 0.0629678 0)
(-0.224314 0.0650934 0)
(-0.240774 0.0670424 -2.92895e-19)
(-0.257621 0.0688212 -2.78898e-19)
(-0.274843 0.070439 2.65815e-19)
(-0.292428 0.0719068 0)
(-0.310368 0.0732367 0)
(-0.328655 0.0744417 0)
(-0.347282 0.0755344 0)
(-0.366244 0.0765276 -2.12212e-19)
(-0.385536 0.0774332 -2.03412e-19)
(-0.405156 0.0782625 1.95222e-19)
(-0.425101 0.0790255 0)
(-0.44537 0.0797315 0)
(-0.465961 0.0803885 0)
(-0.486876 0.0810034 0)
(-0.508114 0.0815821 -1.61243e-19)
(-0.529676 0.0821294 0)
(-0.551563 0.0826491 0)
(-0.573776 0.0831444 -1.45297e-19)
(-0.596315 0.0836172 -1.40637e-19)
(-0.619183 0.0840691 0)
(-0.642378 0.0845006 2.63721e-19)
(-0.665903 0.0849118 -1.27924e-19)
(-0.689757 0.0853022 1.24121e-19)
(-0.713939 0.0856707 0)
(-0.738449 0.0860158 0)
(-0.763286 0.0863355 0)
(-0.788448 0.0866279 0)
(-0.813932 0.0868904 1.07734e-19)
(-0.839736 0.0871205 2.09639e-19)
(-0.865854 0.0873156 1.02197e-19)
(-0.892282 0.0874734 -9.96094e-20)
(-0.919017 0.0875916 0)
(-0.946052 0.0876686 1.89353e-19)
(-0.973383 0.0877038 1.84811e-19)
(-1.001 0.0876976 1.80462e-19)
(-1.02891 0.0876525 -1.76296e-19)
(-1.05709 0.0875727 0)
(-1.08554 0.087464 -2.52777e-19)
(-1.11424 0.0873335 0)
(-1.14317 0.0871888 8.04154e-20)
(-1.17225 0.0870242 7.87601e-20)
(-1.20146 0.0867768 0)
(-1.2308 0.0864319 0)
(-1.26028 0.08603 1.46556e-19)
(-1.28987 0.0855803 0)
(-1.31955 0.0850804 1.39954e-19)
(-1.34929 0.0845258 0)
(-1.37907 0.0839123 -1.338e-19)
(-1.40886 0.0832367 -2.6195e-19)
(-1.43864 0.0824971 0)
(-1.46838 0.0816921 0)
(-1.49805 0.0808211 0)
(-1.52763 0.079884 -1.20124e-19)
(-1.55708 0.0788811 0)
(-1.58637 0.0778128 -1.1524e-19)
(-1.61549 0.0766798 0)
(-1.64438 0.075483 0)
(-1.67304 0.0742231 2.17056e-19)
(-1.70141 0.0729005 0)
(-1.72947 0.0715158 1.04211e-19)
(-1.7572 0.0700687 0)
(-1.78455 0.0685589 1.00193e-19)
(-1.81148 0.0669853 0)
(-1.83798 0.0653459 0)
(-1.86398 0.063638 0)
(-1.88947 0.0618577 2.78171e-19)
(-1.91438 0.0600004 9.10244e-20)
(-1.93869 0.0580606 0)
(-1.96233 0.0560316 0)
(-1.98526 0.0539065 0)
(-2.00741 0.0516777 0)
(-2.02872 0.0493375 -8.23956e-20)
(-2.04913 0.0468784 1.61238e-19)
(-2.06856 0.0442941 7.90554e-20)
(-2.08693 0.0415789 -1.54631e-19)
(-2.10416 0.0387293 -1.51349e-19)
(-2.12017 0.0357439 -7.4102e-20)
(-2.13486 0.0326238 0)
(-2.14816 0.0293734 -1.41549e-19)
(-2.15996 0.0259998 0)
(-2.17018 0.022513 1.35021e-19)
(-2.17875 0.0189252 6.58801e-20)
(-2.18558 0.0152502 0)
(-2.1906 0.0115018 -1.25186e-19)
(-2.19375 0.0076913 -6.09095e-20)
(-2.19495 0.00383431 0)
(-2.19419 -3.11671e-05 -5.75758e-20)
(-2.19144 -0.00386854 1.67224e-19)
(-2.18669 -0.00766461 0)
(-2.17993 -0.0114131 0)
(-2.17114 -0.0151105 0)
(-2.16033 -0.0187539 0)
(-2.14748 -0.0223408 9.36434e-20)
(-2.13259 -0.0258683 8.96722e-20)
(-2.11566 -0.0293333 0)
(-2.0967 -0.0327323 0)
(-2.07569 -0.0360614 0)
(-2.05266 -0.0393161 0)
(-2.02761 -0.042492 0)
(-2.00055 -0.0455845 0)
(-1.97149 -0.0485894 6.2799e-20)
(-1.94046 -0.0515025 -4.94021e-22)
(-1.90748 -0.0543199 0)
(-1.87257 -0.0570376 0)
(-1.83577 -0.0596518 4.73703e-20)
(-1.7971 -0.0621589 0)
(-1.7566 -0.0645554 -3.87303e-20)
(-1.71431 -0.0668374 -3.5316e-20)
(-1.67027 -0.0690004 0)
(-1.62453 -0.0710399 0)
(-1.57714 -0.072952 2.26354e-20)
(-1.52817 -0.074733 3.87361e-20)
(-1.47766 -0.0763799 0)
(-1.42568 -0.0778903 0)
(-1.37231 -0.079262 0)
(-1.31761 -0.0804924 3.20184e-21)
(-1.26165 -0.0815771 5.19522e-22)
(-1.20453 -0.0825119 0)
(-1.14632 -0.083294 1.38534e-20)
(-1.08711 -0.0839218 9.57649e-21)
(-1.02701 -0.0843952 -2.75645e-20)
(-0.966103 -0.084713 0)
(-0.904492 -0.0848709 0)
(-0.842284 -0.0848668 -4.66733e-20)
(-0.77959 -0.084703 -2.71703e-20)
(-0.716519 -0.0843837 0)
(-0.653181 -0.0839071 0)
(-0.589694 -0.0832705 0)
(-0.526175 -0.0824852 0)
(-0.462737 -0.08155 -7.90525e-20)
(-0.3995 -0.0804608 0)
(-0.336587 -0.079223 0)
(-0.274119 -0.0778257 0)
(-0.212241 -0.0762578 0)
(-0.151073 -0.074507 0)
(-0.0907982 -0.072533 0)
(-0.0316086 -0.0702826 -1.08109e-19)
(0.0263885 -0.0676603 0)
(0.0824617 -0.0644689 0)
(0.136755 -0.0606236 -2.35665e-19)
(0.187894 -0.0556537 1.20263e-19)
(0.238932 -0.0500483 -1.25107e-19)
(0.281714 -0.040782 1.28869e-19)
(0.000925648 -0.0117191 0)
(0.00312348 -0.0188408 1.91598e-18)
(0.00489875 -0.0201387 0)
(0.00616303 -0.0191439 4.8847e-19)
(0.0069489 -0.0170574 0)
(0.00724574 -0.0143614 0)
(0.00705814 -0.0113073 -3.46806e-19)
(0.00638462 -0.0080448 0)
(0.0052139 -0.00466498 0)
(0.003523 -0.00122089 0)
(0.00129347 0.00224401 0)
(-0.0014564 0.00566978 0)
(-0.00473082 0.00899374 1.19734e-18)
(-0.00854929 0.0122244 5.86344e-19)
(-0.0129265 0.0153803 -5.74295e-19)
(-0.0178787 0.0184861 0)
(-0.023422 0.021572 0)
(-0.0295748 0.0246789 0)
(-0.0363499 0.0278498 0)
(-0.0437512 0.0311196 0)
(-0.051776 0.0345119 4.89319e-19)
(-0.0604143 0.0380398 4.72145e-19)
(-0.0696464 0.0417042 -4.54284e-19)
(-0.0794445 0.0454901 4.35959e-19)
(-0.0897776 0.0493696 0)
(-0.100615 0.053305 0)
(-0.111927 0.057255 3.80766e-19)
(-0.123687 0.061178 0)
(-0.13587 0.0650345 0)
(-0.148454 0.0687889 3.29271e-19)
(-0.16142 0.0724096 3.13471e-19)
(-0.174751 0.0758711 2.98496e-19)
(-0.188435 0.0791533 0)
(-0.20246 0.0822424 0)
(-0.216818 0.0851301 -2.58382e-19)
(-0.231503 0.0878138 0)
(-0.24651 0.0902953 0)
(-0.261836 0.0925803 2.25101e-19)
(-0.277477 0.0946778 -2.15324e-19)
(-0.293432 0.0965991 2.06199e-19)
(-0.309699 0.098357 0)
(-0.326279 0.0999655 0)
(-0.343171 0.101439 3.64268e-19)
(-0.360375 0.102791 0)
(-0.377891 0.104036 3.36909e-19)
(-0.395719 0.105187 4.86692e-19)
(-0.41386 0.106255 -4.69106e-19)
(-0.432315 0.107252 3.0168e-19)
(-0.451084 0.108188 0)
(-0.470169 0.10907 0)
(-0.48957 0.109907 2.72123e-19)
(-0.509288 0.110704 1.3168e-19)
(-0.529325 0.111466 0)
(-0.549681 0.112197 0)