/*--------------------------------*- C++ -*----------------------------------*\
| =========                 |                                                 |
| \\      /  F ield         | OpenFOAM: The Open Source CFD Toolbox           |
|  \\    /   O peration     | Version:  1.4.2                                 |
|   \\  /    A nd           | Web:      http://www.openfoam.org               |
|    \\/     M anipulation  |                                                 |
\*---------------------------------------------------------------------------*/
FoamFile
{
    version     2.0;
    format      ascii;
    class       volScalarField;
    object      epsilon;
    location    "250";
}
// * * * * * * * * * * * * * * * * * * * * * * * * * * * * * * * * * * * * * //

dimensions      [0 2 -3 0 0 0 0];

internalField   nonuniform List<scalar> 
12225
(
443.025
353.45
290.58
245.334
212.171
187.569
169.211
155.53
145.434
138.15
133.114
129.908
128.216
127.79
128.434
129.985
132.311
135.562
60.1677
73.6181
79.5763
83.7114
87.7404
92.3924
98.0228
104.815
112.868
122.237
132.944
144.984
158.327
172.914
188.658
205.436
223.04
241.577
26.2976
33.7103
37.8442
40.6853
42.9362
44.9658
46.9869
49.1286
51.4719
54.0694
56.9557
60.1523
63.6702
67.5103
71.6621
76.0989
80.7598
85.5241
18.7368
22.7267
25.4826
27.3738
28.8145
30.011
31.0738
32.077
33.0708
34.0884
35.1524
36.2777
37.4736
38.7447
40.0912
41.5091
42.9878
44.4926
16.1694
18.167
19.9374
21.2959
22.3461
23.1828
23.8819
24.4989
25.0673
25.6084
26.1373
26.6648
27.1987
27.7437
28.3028
28.8772
29.4667
30.0548
15.2357
16.0887
17.0528
17.9435
18.6961
19.3171
19.834
20.2725
20.6546
20.9977
21.3151
21.616
21.9066
22.1911
22.4724
22.753
23.0344
23.3073
14.8944
15.1711
15.589
16.0569
16.5131
16.9305
17.2998
17.6197
17.8968
18.1396
18.3552
18.5497
18.7282
18.8947
19.0525
19.2044
19.3524
19.4918
14.7876
14.8384
14.9928
15.2119
15.4582
15.7075
15.9456
16.1648
16.363
16.5404
16.6987
16.8401
16.9674
17.0832
17.1893
17.2869
17.3769
17.4582
14.7441
14.6885
14.7006
14.7673
14.8698
14.992
15.1221
15.2517
15.376
15.4925
15.6
15.6983
15.7881
15.8699
15.9444
16.0115
16.0708
16.1205
14.7239
14.6132
14.5423
14.509
14.5066
14.5273
14.5637
14.6096
14.6605
14.7132
14.7654
14.8158
14.8638
14.9089
14.951
14.9899
15.025
15.053
14.715
14.5788
14.4652
14.3749
14.3067
14.2576
14.2242
14.2033
14.1918
14.1871
14.1873
14.1908
14.1964
14.2034
14.2112
14.2194
14.2273
14.2333
14.7111
14.5641
14.4313
14.3131
14.2094
14.1196
14.0423
13.9762
13.9198
13.8715
13.83
13.7943
13.7632
13.736
13.7121
13.6909
13.672
13.6547
14.7091
14.5577
14.4172
14.2872
14.1674
14.0575
13.9572
13.8657
13.7823
13.7064
13.6372
13.5741
13.5163
13.4634
13.4147
13.37
13.3288
13.2912
14.7079
14.5546
14.411
14.2765
14.1504
14.0323
13.9219
13.8186
13.7221
13.632
13.5478
13.4691
13.3956
13.3268
13.2624
13.2021
13.1459
13.0941
14.707
14.5526
14.4077
14.2715
14.1431
14.0221
13.908
13.8003
13.6987
13.6027
13.512
13.4264
13.3454
13.269
13.1967
13.1285
13.0642
13.0047
14.7062
14.5511
14.4055
14.2685
14.1393
14.0174
13.9021
13.793
13.6897
13.5919
13.4991
13.4111
13.3276
13.2484
13.1733
13.1021
13.0347
12.9721
14.7057
14.55
14.404
14.2666
14.1371
14.0149
13.8993
13.7899
13.6863
13.588
13.4948
13.4064
13.3225
13.2427
13.167
13.0952
13.0272
12.9638
14.7054
14.5496
14.4035
14.266
14.1365
14.0143
13.8988
13.7895
13.686
13.588
13.495
13.4069
13.3232
13.2438
13.1685
13.097
13.0294
12.9664
14.7055
14.5499
14.404
14.2668
14.1376
14.0158
13.9008
13.7921
13.6894
13.5922
13.5002
13.4132
13.3307
13.2526
13.1787
13.1086
13.0424
12.9809
14.7059
14.5508
14.4056
14.2694
14.1413
14.021
13.9079
13.8015
13.7013
13.6071
13.5185
13.435
13.3564
13.2823
13.2124
13.1466
13.0847
13.0274
14.7067
14.553
14.4099
14.2767
14.1529
14.038
13.9315
13.8328
13.7414
13.6566
13.578
13.5049
13.4369
13.3735
13.3142
13.2588
13.2071
13.1596
14.7085
14.5591
14.4234
14.3013
14.1922
14.0954
14.0096
13.9335
13.8658
13.8053
13.7509
13.7017
13.6568
13.6157
13.5776
13.5423
13.5094
13.4793
14.7142
14.5804
14.4713
14.386
14.3217
14.2746
14.241
14.2172
14.2006
14.1887
14.1798
14.1727
14.1665
14.1605
14.1544
14.148
14.1412
14.1344
14.7358
14.6588
14.6348
14.6528
14.6991
14.7617
14.8315
14.9022
14.9697
15.0317
15.087
15.1353
15.1768
15.2118
15.241
15.2651
15.2847
15.3006
14.8205
14.9293
15.1365
15.3919
15.6559
15.9065
16.1328
16.3305
16.4995
16.6421
16.7616
16.8612
16.9441
17.013
17.0703
17.118
17.1578
17.1912
15.141
15.7838
16.5135
17.2014
17.7902
18.2756
18.6693
18.9861
19.2406
19.4455
19.6113
19.7465
19.8577
19.9503
20.0282
20.0948
20.1525
20.2031
16.3183
18.2963
19.9579
21.2306
22.1782
22.8812
23.4057
23.8024
24.1079
24.3478
24.5406
24.6996
24.8346
24.9529
25.0598
25.1592
25.254
25.3458
20.7533
25.6337
28.6901
30.5984
31.839
32.6609
33.2178
33.6117
33.9078
34.1482
34.3602
34.5618
34.7644
34.9753
35.1989
35.4373
35.6914
35.96
43.9594
54.4825
58.7049
60.4144
60.9657
60.9765
60.8279
60.7331
60.7591
60.9351
61.2702
61.7625
62.4047
63.1866
64.0964
65.1218
66.248
67.4672
332.627
280.254
240.734
210.197
186.161
166.953
151.403
138.675
128.157
119.395
112.046
105.846
100.589
96.1142
92.293
89.0218
86.2174
83.8103
2.60695
3.3776
5.38155
9.38186
14.8706
22.0152
31.1559
40.6987
51.1311
62.5274
74.8888
88.2094
102.486
117.718
133.909
151.066
169.197
188.314
208.431
229.564
251.733
274.96
299.267
324.681
351.23
378.945
407.858
438.004
469.419
502.141
536.21
571.665
608.549
646.904
686.772
728.195
771.217
815.876
862.211
910.258
960.049
1011.61
1064.96
1120.12
1177.1
1235.87
1296.44
1358.76
1422.79
1488.48
1555.74
1624.5
1694.66
1766.14
1838.87
1912.83
1988.1
2064.88
2141.56
2216.77
2289.87
2360.18
2426.98
2489.58
2547.25
2599.31
2645.14
2684.15
2715.84
2739.82
2755.8
2763.58
2763.11
2754.44
2737.73
2713.26
2681.39
2642.55
2597.25
2546.05
2489.54
2428.34
2363.07
2294.36
2222.8
2149
2073.5
1996.85
1919.56
1842.16
1765.13
1688.98
1615.14
1544.38
1480.14
1424.38
1371.61
1320.42
1270.43
1221.59
1173.91
1127.46
1082.28
1038.42
995.918
954.809
915.112
876.839
839.994
804.573
770.567
737.96
706.732
676.856
648.303
621.042
595.037
570.249
546.641
524.171
502.798
482.48
463.175
444.841
427.437
410.923
395.257
380.4
366.316
352.965
340.314
328.327
316.97
306.212
296.022
286.371
277.23
268.573
260.374
252.61
245.256
238.291
231.694
225.446
219.527
213.92
208.608
203.574
198.805
194.284
189.998
185.935
182.087
178.44
174.98
171.696
168.577
165.615
162.799
160.121
157.573
155.148
152.838
150.635
148.533
146.525
144.604
142.763
140.996
139.293
137.647
136.045
134.475
132.919
131.348
129.722
127.971
125.951
123.462
119.196
12.095
12.2987
15.6883
20.6399
27.0238
34.5865
43.0057
51.9396
61.3134
71.0826
81.2161
91.6944
102.507
113.65
125.123
136.933
149.085
161.588
174.453
187.692
201.315
215.335
229.764
244.613
259.896
275.623
291.804
308.451
325.573
343.179
361.277
379.873
398.974
418.584
438.706
459.341
480.491
502.152
524.321
546.992
570.156
593.805
617.925
642.502
667.52
692.964
718.814
745.054
771.669
798.644
825.972
853.648
881.677
910.072
938.855
968.06
997.734
1027.94
1058.38
1088.33
1117.46
1145.47
1172.07
1196.98
1219.9
1240.58
1258.76
1274.22
1286.78
1296.3
1302.65
1305.79
1305.67
1302.31
1295.77
1286.13
1273.52
1258.08
1239.99
1219.44
1196.64
1171.82
1145.2
1117.01
1087.47
1056.82
1025.25
992.989
960.212
927.091
893.753
860.199
826.546
793.39
761.836
732.107
703.609
676.055
649.317
623.346
598.128
573.663
549.958
527.018
504.847
483.449
462.824
442.969
423.878
405.545
387.957
371.104
354.971
339.542
324.799
310.724
297.296
284.497
272.303
260.695
249.65
239.146
229.162
219.676
210.666
202.113
193.994
186.291
178.983
172.053
165.481
159.25
153.343
147.744
142.437
137.407
132.64
128.123
123.842
119.785
115.94
112.296
108.842
105.569
102.466
99.5248
96.7361
94.0919
91.5844
89.2061
86.9499
84.8094
82.7807
80.8583
79.0342
77.3019
75.655
74.0888
72.5986
71.18
69.8288
68.541
67.3129
66.1409
65.0216
63.9518
62.9288
61.9496
61.0118
60.113
59.2515
58.4258
57.6356
56.8821
56.1694
55.5093
54.9304
54.5081
54.4655
55.5198
26.2742
20.8361
24.1481
29.6089
36.3615
44.0565
52.4136
61.223
70.3733
79.8039
89.4821
99.391
109.524
119.882
130.467
141.287
152.347
163.655
175.219
187.044
199.137
211.503
224.146
237.069
250.275
263.765
277.539
291.597
305.939
320.56
335.46
350.634
366.077
381.785
397.753
413.972
430.438
447.143
464.079
481.239
498.616
516.204
533.995
551.986
570.174
588.557
607.137
625.919
644.912
664.127
683.581
703.292
723.281
743.569
764.171
785.093
806.326
827.853
849.415
870.73
891.577
911.735
930.979
949.077
965.798
980.925
994.254
1005.61
1014.83
1021.79
1026.4
1028.59
1028.34
1025.66
1020.56
1013.1
1003.38
991.51
977.611
961.832
944.329
925.267
904.814
883.142
860.418
836.808
812.469
787.546
762.161
736.423
710.422
684.142
658.296
633.105
608.793
585.377
562.739
540.781
519.447
498.715
478.579
459.039
440.102
421.772
404.053
386.948
370.456
354.575
339.3
324.626
310.544
297.044
284.114
271.743
259.916
248.619
237.836
227.55
217.746
208.407
199.515
191.053
183.005
175.352
168.08
161.17
154.607
148.376
142.46
136.845
131.517
126.461
121.665
117.115
112.799
108.705
104.822
101.139
97.6463
94.3332
91.1906
88.2097
85.3818
82.699
80.1535
77.7381
75.4458
73.27
71.2044
69.243
67.3803
65.6109
63.9302
62.3334
60.8159
59.3728
58.0004
56.694
55.4495
54.263
53.1312
52.0508
51.0188
50.0323
49.0885
48.1849
47.3192
46.4893
45.6931
44.929
44.1959
43.4929
42.8204
42.1801
41.5768
41.0213
40.5371
40.1769
40.069
40.4887
38.2755
27.9012
30.871
36.4934
43.3565
51.0257
59.2602
67.9026
76.8594
86.0775
95.5285
105.199
115.083
125.181
135.495
146.03
156.787
167.771
178.982
190.422
202.089
213.981
226.096
238.428
250.973
263.723
276.67
289.808
303.127
316.618
330.272
344.078
358.028
372.111
386.318
400.641
415.071
429.601
444.226
458.941
473.743
488.632
503.61
518.682
533.856
549.145
564.564
580.133
595.875
611.82
627.996
644.438
661.177
678.243
695.656
713.426
731.545
749.993
768.576
787.121
805.444
823.347
840.611
857.006
872.302
886.272
898.705
909.41
918.22
924.998
929.637
932.062
932.233
930.14
925.803
919.265
910.603
899.922
887.348
873.022
857.095
839.725
821.076
801.309
780.582
759.053
736.865
714.16
691.021
667.582
643.97
620.601
597.628
575.155
553.278
532.028
511.388
491.334
471.848
452.924
434.559
416.756
399.518
382.846
366.743
351.208
336.239
321.831
307.98
294.676
281.913
269.68
257.964
246.755
236.039
225.801
216.028
206.705
197.816
189.346
181.279
173.6
166.293
159.344
152.736
146.455
140.487
134.817
129.432
124.318
119.463
114.853
110.477
106.323
102.381
98.6394
95.0882
91.7178
88.5188
85.4825
82.6005
79.8646
77.2673
74.8013
72.4597
70.2359
68.1236
66.1169
64.2102
62.398
60.6753
59.0371
57.4792
55.997
54.5865
53.2436
51.9645
50.7454
49.5829
48.4737
47.4144
46.402
45.4339
44.5072
43.6196
42.7687
41.9523
41.1687
40.4159
39.6927
38.9977
38.3305
37.6913
37.0817
36.5054
35.9709
35.4949
35.111
34.8892
34.9339
48.6358
33.552
35.9123
41.4336
48.2346
55.7782
63.8292
72.2579
80.9917
89.991
99.2353
108.715
118.426
128.369
138.544
148.951
159.59
170.461
181.559
192.879
204.416
216.161
228.105
240.238
252.546
265.019
277.642
290.402
303.284
316.275
329.36
342.525
355.757
369.045
382.376
395.741
409.132
422.543
435.97
449.411
462.868
476.346
489.855
503.406
517.017
530.71
544.512
558.454
572.574
586.912
601.512
616.422
631.687
647.35
663.448
680.004
697.023
714.481
732.249
750.185
768.116
785.839
803.124
819.719
835.369
849.818
862.824
874.168
883.655
891.122
896.443
899.524
900.308
898.783
894.962
888.867
880.573
870.193
857.868
843.752
828.01
810.813
792.34
772.758
752.237
730.95
709.038
686.702
663.931
641.196
618.573
596.203
574.192
552.62
531.554
511.028
491.057
471.644
452.789
434.493
416.759
399.588
382.982
366.941
351.463
336.545
322.183
308.37
295.1
282.363
270.149
258.447
247.244
236.529
226.287
216.504
207.166
198.258
189.765
181.671
173.963
166.623
159.638
152.993
146.674
140.665
134.953
129.526
124.368
119.469
114.815
110.395
106.197
102.21
98.4243
94.8293
91.4155
88.1735
85.0948
82.1707
79.3935
76.7554
74.2493
71.8682
69.6056
67.4552
65.4111
63.4677
61.6195
59.8615
58.1889
56.5969
55.0814
53.638
52.263
50.9524
49.7026
48.5103
47.372
46.2846
45.2452
44.2508
43.2988
42.3867
41.5122
40.6729
39.8669
39.0923
38.3476
37.6313
36.9423
36.2801
35.645
35.0381
34.4627
33.9252
33.4381
33.0237
32.7223
32.578
56.9041
37.8216
39.4134
44.6158
51.1902
58.4995
66.2929
74.4515
82.9164
91.6585
100.665
109.929
119.451
129.229
139.263
149.552
160.092
170.879
181.907
193.165
204.645
216.333
228.215
240.277
252.502
264.872
277.37
289.977
302.676
315.448
328.276
341.142
354.031
366.929
379.823
392.702
405.557
418.383
431.178
443.942
456.679
469.398
482.113
494.842
507.61
520.447
533.388
546.475
559.758
573.289
587.129
601.34
615.986
631.128
646.821
663.107
680.01
697.516
715.536
733.944
752.563
771.173
789.514
807.298
824.228
840.004
854.344
866.986
877.703
886.303
892.635
896.592
898.082
897.108
893.714
887.851
879.592
869.073
856.46
841.937
825.692
807.918
788.823
768.591
747.398
725.479
702.91
680.185
657.359
634.601
612.037
589.761
567.855
546.387
525.41
504.96
485.059
465.721
446.953
428.762
411.15
394.118
377.666
361.791
346.49
331.758
317.587
303.97
290.897
278.357
266.338
254.829
243.816
233.286
223.223
213.614
204.443
195.695
187.355
179.407
171.837
164.629
157.768
151.24
145.03
139.125
133.51
128.173
123.099
118.278
113.697
109.344
105.208
101.278
97.5448
93.9979
90.6279
87.4259
84.3834
81.4922
78.7444
76.1327
73.65
71.2895
69.045
66.9103
64.8796
62.9474
61.1085
59.3579
57.6909
56.1029
54.5897
53.1473
51.7718
50.4594
49.2067
48.0103
46.867
45.7737
44.7276
43.7258
42.7658
41.8451
40.9614
40.1126
39.2967
38.512
37.7568
37.0298
36.33
35.6569
35.0106
34.3921
33.8042
33.2521
32.7449
32.2982
31.9363
31.6794
62.7998
40.7723
41.5521
46.2722
52.4683
59.4276
66.8779
74.7001
82.8402
91.2747
99.9943
108.996
118.279
127.844
137.69
147.815
158.213
168.879
179.803
190.975
202.38
214.005
225.832
237.842
250.016
262.333
274.773
287.313
299.933
312.611
325.326
338.06
350.794
363.512
376.199
388.843
401.436
413.97
426.444
438.859
451.22
463.538
475.83
488.117
500.43
512.803
525.281
537.914
550.764
563.899
577.392
591.327
605.788
620.861
636.625
653.146
670.469
688.604
707.496
727.023
746.996
767.164
787.221
806.827
825.627
843.264
859.403
873.74
886.01
895.994
903.517
908.506
910.724
910.127
906.755
900.682
892.034
880.978
867.713
852.456
835.413
816.776
796.811
775.708
753.573
730.897
707.792
684.491
661.144
637.909
614.964
592.353
570.145
548.406
527.179
506.498
486.386
466.861
447.931
429.602
411.877
394.754
378.232
362.306
346.97
332.217
318.037
304.42
291.355
278.83
266.832
255.346
244.36
233.858
223.824
214.244
205.102
196.383
188.07
180.147
172.601
165.414
158.573
152.063
145.868
139.976
134.371
129.042
123.975
119.158
114.579
110.226
106.089
102.156
98.4176
94.8641
91.4861
88.2748
85.2216
82.3185
79.5578
76.9322
74.4345
72.0583
69.7972
67.6452
65.5964
63.6456
61.7875
60.0172
58.3299
56.7214
55.1872
53.7234
52.3262
50.9918
49.7169
48.4981
47.3322
46.2163
45.1474
44.1228
43.14
42.1967
41.2904
40.4192
39.581
38.7742
37.9972
37.2487
36.5277
35.8337
35.1668
34.5279
33.9192
33.3449
32.812
32.3314
31.9179
31.5815
66.3042
42.4951
42.5079
46.641
52.3351
58.8373
65.8589
73.275
81.0302
89.1007
97.4774
106.158
115.141
124.429
134.019
143.909
154.094
164.568
175.32
186.338
197.608
209.113
220.834
232.75
244.841
257.084
269.454
281.928
294.483
307.094
319.738
332.395
345.044
357.666
370.245
382.767
395.221
407.601
419.902
432.126
444.278
456.369
468.416
480.443
492.483
504.574
516.768
529.123
541.712
554.615
567.929
581.756
596.21
611.407
627.46
644.47
662.511
681.627
701.798
722.903
744.726
766.965
789.249
811.164
832.275
852.16
870.42
886.711
900.729
912.239
920.857
926.417
928.842
928.155
924.445
917.853
908.555
896.747
882.649
866.539
848.637
829.05
808.239
786.434
763.803
740.609
717.038
693.273
669.469
645.769
622.306
599.18
576.504
554.348
532.741
511.717
491.295
471.491
452.312
433.761
415.839
398.543
381.868
365.807
350.352
335.494
321.221
307.522
294.383
281.792
269.734
258.194
247.158
236.609
226.532
216.911
207.729
198.971
190.621
182.662
175.079
167.857
160.98
154.434
148.203
142.274
136.634
131.268
126.164
121.31
116.693
112.303
108.128
104.157
100.381
96.7889
93.3727
90.1231
87.0317
84.0904
81.2915
78.6278
76.0922
73.6782
71.3794
69.1899
67.1039
65.116
63.2211
61.4142
59.6906
58.046
56.4761
54.9768
53.5443
52.1751
50.8656
49.6125
48.4126
47.2631
46.1609
45.1035
44.0883
43.1129
42.1751
41.2728
40.4041
39.5672
38.7608
37.9835
37.2343
36.5127
35.8188
35.1533
34.5181
33.9165
33.3537
32.8374
32.3765
31.9767
67.5843
43.1146
42.4624
45.9597
51.0653
57.0258
63.5451
70.4913
77.8029
85.4518
93.426
101.721
110.337
119.273
128.529
138.103
147.99
158.183
168.672
179.447
190.491
201.787
213.317
225.058
236.989
249.085
261.321
273.672
286.111
298.613
311.154
323.708
336.255
348.772
361.243
373.65
385.981
398.228
410.384
422.449
434.426
446.327
458.167
469.971
481.77
493.608
505.538
517.627
529.956
542.624
555.745
569.45
583.89
599.222
615.609
633.205
652.131
672.483
694.273
717.369
741.506
766.302
791.288
815.943
839.738
862.17
882.757
901.165
916.795
929.273
938.376
944.022
946.228
945.084
940.735
933.395
923.296
910.646
895.64
878.73
860.14
840.078
818.834
796.642
773.705
750.229
726.394
702.366
678.292
654.306
630.528
607.064
584.01
561.452
539.474
518.123
497.414
477.354
457.948
439.196
421.095
403.638
386.818
370.626
355.052
340.083
325.709
311.915
298.688
286.014
273.877
262.262
251.153
240.535
230.39
220.702
211.456
202.634
194.221
186.2
178.556
171.273
164.335
157.729
151.438
145.45
139.75
134.325
129.163
124.251
119.576
115.128
110.896
106.869
103.036
99.3893
95.9181
92.614
89.4687
86.4741
83.6225
80.9067
78.3196
75.8548
73.5058
71.2667
69.1317
67.0955
65.1529
63.299
61.529
59.8386
58.2236
56.6798
55.2035
53.791
52.4389
51.1437
49.9025
48.7121
47.5697
46.4727
45.4185
44.4048
43.4293
42.4901
41.5851
40.7129
39.8718
39.0606
38.2784
37.5246
36.7992
36.1029
35.4371
34.8044
34.2087
33.6552
33.1492
32.6945
66.8941
42.7843
41.606
44.4705
48.9454
54.312
60.2774
66.703
73.5194
80.6919
88.204
96.0493
104.226
112.734
121.572
130.74
140.234
150.047
160.172
170.596
181.306
192.285
203.514
214.971
226.635
238.479
250.479
262.606
274.835
287.137
299.486
311.856
324.221
336.56
348.85
361.074
373.218
385.268
397.218
409.065
420.81
432.461
444.034
455.549
467.041
478.55
490.134
501.865
513.833
526.152
538.958
552.419
566.726
582.099
598.773
616.987
636.937
658.802
682.608
708.185
735.181
763.074
791.25
819.052
845.816
871.012
893.858
913.774
930.324
943.148
952.157
957.389
958.961
957.017
951.754
943.502
932.554
919.181
903.651
886.279
867.325
847.027
825.623
803.329
780.341
756.844
733.005
708.976
684.895
660.888
637.067
613.532
590.376
567.68
545.517
523.955
503.072
482.865
463.336
444.48
426.288
408.751
391.859
375.601
359.964
344.936
330.504
316.654
303.371
290.641
278.448
266.777
255.611
244.935
234.732
224.985
215.679
206.797
198.322
190.239
182.532
175.185
168.184
161.513
155.158
149.105
143.34
137.85
132.622
127.645
122.906
118.393
114.097
110.006
106.11
102.4
98.8667
95.501
92.2946
89.2396
86.3284
83.5536
80.9083
78.3859
75.9802
73.6851
71.4949
69.4043
67.4081
65.5013
63.6793
61.9376
60.272
58.6785
57.1532
55.6925
54.2929
52.9511
51.6638
50.4281
49.2412
48.1003
47.0031
45.947
44.93
43.95
43.0052
42.0938
41.2146
40.3662
39.5478
38.7587
37.9989
37.2688
36.5696
35.9033
35.2727
34.6811
34.1315
33.627
64.4589
41.6735
40.1413
42.4287
46.2812
51.042
56.4294
62.3012
68.5809
75.228
82.2218
89.5535
97.2201
105.221
113.557
122.227
131.228
140.557
150.206
160.166
170.423
180.963
191.767
202.816
214.085
225.552
237.189
248.968
260.862
272.842
284.878
296.942
309.008
321.051
333.046
344.974
356.816
368.558
380.192
391.71
403.113
414.406
425.603
436.724
447.8
458.875
470.006
481.269
492.766
504.624
517.005
530.115
544.201
559.559
576.53
595.483
616.732
640.571
666.987
695.724
726.283
757.876
789.702
820.963
850.726
878.084
902.322
922.945
939.677
952.109
960.366
964.631
965.137
962.138
955.927
946.826
935.148
921.195
905.251
887.594
868.478
848.138
826.788
804.627
781.836
758.582
735.015
711.274
687.484
663.759
640.203
616.908
593.959
571.43
549.393
527.91
507.045
486.862
467.372
448.564
430.423
412.937
396.092
379.875
364.275
349.276
334.867
321.033
307.76
295.034
282.839
271.159
259.979
249.284
239.057
229.282
219.943
211.023
202.508
194.382
186.628
179.233
172.18
165.455
159.045
152.935
147.112
141.563
136.275
131.237
126.436
121.861
117.503
113.349
109.391
105.618
102.023
98.595
95.3271
92.2108
89.2388
86.4037
83.6987
81.1172
78.6529
76.3
74.0527
71.9056
69.8536
67.8918
66.0156
64.2204
62.5021
60.8566
59.2802
57.769
56.3197
54.9289
53.5935
52.3103
51.0766
49.8897
48.7472
47.6467
46.586
45.5632
44.5764
43.6241
42.7048
41.8174
40.9609
40.1348
39.3387
38.5731
37.8389
37.1374
36.4707
35.8408
35.2489
34.6984
60.3979
39.9674
38.2906
40.1086
43.4
47.5831
52.3956
57.6979
63.4114
69.4925
75.9182
82.678
89.7679
97.1879
104.939
113.021
121.434
130.175
139.239
148.618
158.302
168.277
178.528
189.035
199.776
210.728
221.864
233.156
244.576
256.092
267.676
279.298
290.927
302.536
314.101
325.598
337.008
348.314
359.506
370.575
381.522
392.351
403.075
413.715
424.305
434.889
445.53
456.313
467.35
478.788
490.82
503.696
517.731
533.317
550.934
571.133
594.384
621.055
650.992
683.766
718.756
754.555
790.219
824.485
856.276
884.733
909.25
929.464
945.211
956.488
963.437
966.311
965.423
961.114
953.731
943.616
931.102
916.505
900.113
882.19
862.978
842.695
821.538
799.684
777.293
754.51
731.467
708.283
685.068
661.92
638.93
616.18
593.744
571.692
550.085
528.983
508.441
488.516
469.268
450.698
432.783
415.509
398.859
382.82
367.38
352.526
338.245
324.524
311.349
298.707
286.583
274.962
263.831
253.173
242.973
233.216
223.887
214.971
206.451
198.314
190.544
183.126
176.046
169.29
162.845
156.696
150.832
145.238
139.904
134.817
129.966
125.339
120.927
116.72
112.706
108.878
105.226
101.742
98.4166
95.2433
92.2142
89.3221
86.5602
83.9221
81.4015
78.9926
76.6897
74.4875
72.3809
70.3651
68.4353
66.5873
64.8168
63.1197
61.4923
59.9309
58.4319
56.9919
55.6079
54.2769
52.9961
51.7628
50.5747
49.4294
48.3247
47.2587
46.2295
45.2357
44.2758
43.3487
42.4536
41.5897
40.7568
39.955
39.1851
38.4479
37.7448
37.077
36.4446
35.8512
55.8182
38.0865
36.3713
37.8245
40.6394
44.2949
48.5549
53.29
58.4253
63.9173
69.7422
75.8886
82.3522
89.133
96.2325
103.652
111.394
119.456
127.836
136.529
145.527
154.818
164.389
174.223
184.299
194.596
205.087
215.746
226.544
237.449
248.432
259.462
270.507
281.54
292.534
303.465
314.313
325.062
335.702
346.225
356.635
366.939
377.155
387.311
397.447
407.619
417.903
428.402
439.253
450.635
462.789
476.027
490.756
507.494
526.901
549.698
576.589
607.63
642.367
679.951
719.264
758.928
797.437
833.462
865.951
894.167
917.676
936.307
950.093
959.211
963.936
964.624
961.67
955.479
946.441
934.927
921.281
905.817
888.817
870.533
851.185
830.969
810.058
788.602
766.737
744.582
722.245
699.824
677.406
655.074
632.9
610.954
589.299
567.992
547.088
526.639
506.694
487.304
468.527
450.401
432.902
416.012
399.716
384.003
368.86
354.276
340.239
326.739
313.762
301.297
289.33
277.848
266.838
256.285
246.176
236.496
227.231
218.366
209.888
201.782
194.034
186.63
179.556
172.8
166.348
160.187
154.305
148.689
143.329
138.212
133.328
128.666
124.215
119.967
115.911
112.038
108.341
104.809
101.437
98.2145
95.1359
92.1938
89.3815
86.6927
84.1213
81.6615
79.3077
77.0547
74.8974
72.8312
70.8513
68.9535
67.1335
65.3875
63.7114
62.1015
60.5544
59.0669
57.6359
56.2586
54.9321
53.6538
52.4214
51.2325
50.0849
48.9768
47.9063
46.8719
45.8722
44.9062
43.9729
43.0717
42.2024
41.3648
40.5595
39.7871
39.0482
38.3436
37.6726
37.0391
50.453
36.0139
34.4552
35.6603
38.0836
41.2681
45.0089
49.1934
53.7541
58.6505
63.8596
69.3698
75.1765
81.2799
87.682
94.3857
101.394
108.707
116.326
124.248
132.466
140.974
149.761
158.81
168.107
177.628
187.353
197.253
207.301
217.468
227.723
238.035
248.374
258.712
269.022
279.283
289.477
299.591
309.618
319.561
329.429
339.241
349.027
358.833
368.718
378.763
389.074
399.789
411.091
423.219
436.487
451.307
468.21
487.889
511.228
539.089
571.89
609.185
650.002
692.976
736.519
778.906
818.602
854.399
885.467
911.335
931.841
947.062
957.25
962.762
964.017
961.471
955.582
946.796
935.528
922.152
907.009
890.398
872.58
853.78
834.192
813.982
793.293
772.245
750.945
729.485
707.945
686.399
664.912
643.545
622.355
601.392
580.707
560.346
540.354
520.773
501.645
483.017
464.936
447.453
430.548
414.207
398.418
383.171
368.458
354.268
340.592
327.422
314.745
302.552
290.832
279.572
268.761
258.387
248.436
238.896
229.754
220.997
212.612
204.585
196.904
189.555
182.527
175.807
169.382
163.24
157.369
151.759
146.398
141.275
136.38
131.703
127.233
122.962
118.88
114.979
111.25
107.685
104.277
101.018
97.901
94.9191
92.066
89.3354
86.7215
84.2185
81.821
79.524
77.3225
75.2118
73.1874
71.245
69.3804
67.5893
65.8683
64.2137
62.6222
61.0907
59.6161
58.1955
56.8264
55.506
54.232
53.0021
51.8142
50.6664
49.5569
48.4841
47.4467
46.4436
45.4739
44.5371
43.6327
42.7607
41.9213
41.1148
40.3417
39.602
38.8948
38.2242
44.6178
33.7549
32.5473
33.6133
35.7202
38.4895
41.7523
45.4151
49.4206
53.7333
58.3319
63.205
68.348
73.7606
79.4453
85.4056
91.6454
98.1679
104.975
112.067
119.442
127.094
135.016
143.196
151.621
160.273
169.13
178.17
187.367
196.692
206.118
215.615
225.156
234.716
244.274
253.812
263.319
272.794
282.242
291.68
301.136
310.653
320.288
330.119
340.244
350.79
361.915
373.825
386.779
401.115
417.268
435.801
457.444
483.163
514.052
550.598
592.208
637.671
685.251
732.952
778.857
821.327
859.129
891.475
917.98
938.592
953.502
963.074
967.773
968.112
964.62
957.812
948.178
936.164
922.171
906.555
889.621
871.636
852.822
833.368
813.432
793.143
772.611
751.925
731.16
710.381
689.642
668.991
648.472
628.124
607.985
588.091
568.477
549.175
530.219
511.643
493.482
475.774
458.562
441.878
425.711
410.053
394.898
380.24
366.071
352.385
339.175
326.433
314.151
302.32
290.931
279.974
269.439
259.315
249.59
240.255
231.296
222.704
214.465
206.568
199.001
191.753
184.812
178.167
171.806
165.718
159.892
154.318
148.985
143.883
139.003
134.334
129.867
125.594
121.507
117.595
113.853
110.271
106.843
103.562
100.42
97.4109
94.529
91.768
89.1222
86.5861
84.1545
81.8224
79.585
77.4378
75.3762
73.3957
71.4924
69.6625
67.9024
66.2088
64.5783
63.0079
61.4947
60.0357
58.6283
57.2701
55.9586
54.6917
53.4671
52.2832
51.138
50.0301
48.9582
47.921
46.9178
45.9479
45.0109
44.1067
43.2353
42.3969
41.5916
40.8193
40.0787
39.3741
38.7247
31.3235
30.6221
31.652
33.5156
35.9279
38.7602
41.9404
45.4231
49.1787
53.189
57.4432
61.9366
66.6684
71.6408
76.8576
82.3233
88.0427
94.0194
100.256
106.753
113.51
120.521
127.779
135.274
142.992
150.916
159.027
167.301
175.716
184.249
192.875
201.575
210.331
219.134
227.979
236.873
245.835
254.896
264.103
273.523
283.241
293.364
304.027
315.397
327.677
341.118
356.031
372.806
391.936
414.055
439.978
470.763
507.675
551.309
600.18
652.438
705.791
757.886
806.637
850.435
888.224
919.471
944.072
962.239
974.393
981.073
982.881
980.435
974.334
965.144
953.379
939.5
923.909
906.955
888.934
870.099
850.66
830.789
810.628
790.291
769.87
749.438
729.054
708.764
688.606
668.611
648.806
629.213
609.854
590.75
571.921
553.387
535.169
517.291
499.776
482.653
465.95
449.698
433.901
418.562
403.677
389.246
375.263
361.726
348.629
335.968
323.737
311.929
300.537
289.553
278.97
268.779
258.971
249.536
240.465
231.748
223.374
215.334
207.616
200.211
193.109
186.298
179.768
173.509
167.511
161.764
156.259
150.985
145.933
141.094
136.46
132.022
127.77
123.699
119.798
116.062
112.482
109.052
105.764
102.613
99.5926
96.6961
93.9181
91.2532
88.696
86.2416
83.8852
81.622
79.4474
77.357
75.3469
73.4132
71.5524
69.761
68.0356
66.3731
64.7705
63.2249
61.7335
60.2938
58.9032
57.5596
56.2606
55.0043
53.7889
52.6125
51.4738
50.3713
49.304
48.271
47.2715
46.3052
45.3719
44.4715
43.604
42.7694
41.9674
41.1965
40.4612
33.0873
28.7427
28.6455
29.7352
31.4342
33.5573
36.0195
38.7708
41.7787
45.021
48.4828
52.1552
56.0336
60.1169
64.4068
68.9072
73.6227
78.559
83.7212
89.1139
94.7403
100.602
106.698
113.025
119.576
126.342
133.312
140.471
147.805
155.297
162.934
170.705
178.604
186.634
194.809
203.153
211.71
220.541
229.727
239.375
249.617
260.618
272.573
285.717
300.33
316.749
335.374
356.697
381.324
409.989
443.648
483.614
531.086
586.053
645.361
706.215
765.69
821.179
870.696
912.983
947.467
974.135
993.374
1005.81
1012.19
1013.28
1009.83
1002.53
992.039
978.939
963.745
946.898
928.769
909.673
889.869
869.574
848.967
828.19
807.357
786.558
765.862
745.322
724.978
704.861
684.992
665.387
646.058
627.014
608.262
589.808
571.661
553.827
536.315
519.136
502.304
485.833
469.75
454.056
438.762
423.873
409.392
395.32
381.657
368.4
355.548
343.096
331.042
319.379
308.103
297.209
286.689
276.538
266.748
257.311
248.22
239.466
231.041
222.936
215.142
207.651
200.452
193.537
186.897
180.522
174.403
168.532
162.898
157.494
152.311
147.339
142.571
137.999
133.615
129.41
125.377
121.51
117.801
114.243
110.83
107.556
104.413
101.397
98.5022
95.7223
93.0525
90.4878
88.0235
85.6548
83.3769
81.1857
79.0773
77.0479
75.0938
73.2116
71.3979
69.6495
67.9633
66.3364
64.7661
63.2496
61.7845
60.3683
58.9989
57.6741
56.3919
55.1505
53.9484
52.7839
51.6558
50.5629
49.5045
48.4797
47.4882
46.5296
45.6038
44.7107
43.8501
43.0217
42.2241
41.4618
27.857
25.9836
26.5325
27.7772
29.4088
31.3355
33.5144
35.9181
38.5274
41.328
44.3099
47.4666
50.7947
54.2937
57.9655
61.814
65.8443
70.0625
74.475
79.088
83.9068
88.9357
94.1769
99.6308
105.296
111.168
117.243
123.516
129.982
136.643
143.503
150.578
157.894
165.496
173.446
181.832
190.769
200.403
210.914
222.522
235.488
250.121
266.782
285.892
307.936
333.485
363.193
397.848
438.437
485.912
541.445
605.993
676.567
747.911
816.382
878.908
933.278
978.25
1013.45
1039.21
1056.26
1065.62
1068.4
1065.63
1058.32
1047.27
1033.18
1016.69
998.349
978.621
957.907
936.506
914.658
892.561
870.372
848.217
826.198
804.388
782.842
761.599
740.687
720.124
699.923
680.09
660.628
641.535
622.81
604.449
586.448
568.804
551.516