/*--------------------------------*- C++ -*----------------------------------*\
| =========                 |                                                 |
| \\      /  F ield         | OpenFOAM: The Open Source CFD Toolbox           |
|  \\    /   O peration     | Version:  1.4.2                                 |
|   \\  /    A nd           | Web:      http://www.openfoam.org               |
|    \\/     M anipulation  |                                                 |
\*---------------------------------------------------------------------------*/
FoamFile
{
    version     2.0;
    format      ascii;
    class       volScalarField;
    object      k;
    location    "250";
}
// * * * * * * * * * * * * * * * * * * * * * * * * * * * * * * * * * * * * * //

dimensions      [0 2 -2 0 0 0 0];

internalField   nonuniform List<scalar> 
12225
(
0.315115
0.271062
0.237882
0.212499
0.192889
0.177674
0.165884
0.156817
0.149955
0.144906
0.141362
0.139084
0.137873
0.137568
0.138029
0.139139
0.140793
0.143091
0.365358
0.357608
0.353822
0.353675
0.356717
0.362588
0.370963
0.381548
0.394075
0.408295
0.423973
0.440881
0.458798
0.477508
0.496797
0.516454
0.536204
0.55657
0.370186
0.364633
0.36018
0.356894
0.354763
0.353736
0.353742
0.354702
0.356532
0.359151
0.362483
0.366451
0.370981
0.375996
0.381413
0.387132
0.393007
0.398948
0.371733
0.367471
0.36348
0.359989
0.357008
0.354537
0.352566
0.351066
0.350002
0.349336
0.349032
0.349051
0.349359
0.349918
0.350692
0.351638
0.352713
0.353892
0.372436
0.369041
0.365577
0.362312
0.359317
0.356612
0.354198
0.352062
0.35019
0.348564
0.347166
0.345975
0.344969
0.344129
0.343435
0.342865
0.342403
0.342041
0.372748
0.369934
0.366976
0.364036
0.361222
0.358576
0.356117
0.353847
0.351759
0.349845
0.348093
0.346492
0.345031
0.343696
0.342478
0.341364
0.340346
0.339428
0.372876
0.370402
0.367837
0.365243
0.362687
0.360213
0.357848
0.355611
0.353507
0.351534
0.349687
0.347961
0.346348
0.34484
0.34343
0.34211
0.340878
0.339745
0.372917
0.370591
0.368242
0.36588
0.363539
0.361246
0.359023
0.356887
0.354848
0.352909
0.351073
0.349336
0.347697
0.34615
0.34469
0.343314
0.342022
0.340826
0.372931
0.370681
0.368459
0.366252
0.364073
0.361933
0.359846
0.357824
0.355874
0.354004
0.352216
0.35051
0.348885
0.34734
0.345873
0.344483
0.343172
0.341959
0.372936
0.370725
0.368582
0.366488
0.364438
0.362434
0.360479
0.35858
0.356741
0.354965
0.353256
0.351615
0.350041
0.348535
0.347095
0.34572
0.344416
0.343205
0.372936
0.370741
0.368641
0.366615
0.364654
0.362753
0.360908
0.35912
0.357388
0.355714
0.354097
0.352539
0.351039
0.349597
0.348212
0.346884
0.345616
0.344432
0.372935
0.370744
0.368661
0.36667
0.36476
0.362924
0.361156
0.359451
0.357806
0.356219
0.354689
0.353214
0.351793
0.350424
0.349107
0.347841
0.34663
0.345494
0.372934
0.370742
0.368663
0.366685
0.364799
0.362997
0.361272
0.359618
0.358031
0.356507
0.355042
0.353633
0.352279
0.350976
0.349723
0.34852
0.347369
0.346288
0.372935
0.370739
0.36866
0.366684
0.364805
0.363016
0.361311
0.359682
0.358126
0.356637
0.355212
0.353846
0.352538
0.351283
0.350079
0.348925
0.347824
0.346791
0.372937
0.370739
0.368657
0.36668
0.364802
0.363016
0.361316
0.359697
0.358153
0.35668
0.355274
0.353931
0.352647
0.35142
0.350246
0.349124
0.348055
0.347054
0.37294
0.370741
0.368656
0.366678
0.364798
0.363012
0.361313
0.359696
0.358156
0.356689
0.355291
0.353957
0.352684
0.351469
0.35031
0.349204
0.348152
0.347169
0.372945
0.370745
0.368659
0.366679
0.364799
0.363012
0.361313
0.359696
0.358157
0.356692
0.355296
0.353965
0.352697
0.351488
0.350335
0.349235
0.348191
0.347216
0.37295
0.370751
0.368664
0.366684
0.364803
0.363016
0.361317
0.3597
0.358162
0.356697
0.355302
0.353973
0.352706
0.351499
0.350347
0.34925
0.348208
0.347235
0.37295
0.370752
0.368666
0.366686
0.364806
0.363019
0.36132
0.359703
0.358164
0.356699
0.355302
0.353971
0.352702
0.351491
0.350336
0.349235
0.348188
0.34721
0.372946
0.370748
0.368663
0.366684
0.364804
0.363016
0.361314
0.359693
0.358147
0.356673
0.355267
0.353924
0.352641
0.351416
0.350244
0.349126
0.348061
0.347064
0.372941
0.370743
0.368659
0.366677
0.36479
0.362991
0.361274
0.359633
0.358064
0.356561
0.355123
0.353744
0.352424
0.351158
0.349945
0.348784
0.347675
0.346636
0.372936
0.370736
0.368644
0.366645
0.364732
0.362896
0.361131
0.359434
0.357801
0.356229
0.354716
0.353261
0.351862
0.350517
0.349225
0.347985
0.3468
0.345687
0.372929
0.370715
0.368589
0.366535
0.364544
0.362612
0.360736
0.358918
0.357157
0.355454
0.35381
0.352225
0.3507
0.349234
0.347826
0.346476
0.345187
0.343977
0.372911
0.370644
0.368419
0.366221
0.364056
0.361928
0.359848
0.357823
0.355859
0.353962
0.352135
0.35038
0.348698
0.347087
0.345548
0.344078
0.342681
0.341374
0.372857
0.370435
0.367968
0.365475
0.362991
0.360545
0.35816
0.355853
0.353636
0.351512
0.349487
0.347558
0.345725
0.343985
0.342336
0.340773
0.339297
0.337924
0.372695
0.36989
0.366937
0.363938
0.360982
0.358117
0.355369
0.352755
0.350281
0.347949
0.345755
0.343696
0.341766
0.339959
0.338268
0.336687
0.335211
0.333854
0.372232
0.368605
0.364826
0.361108
0.35755
0.354199
0.351073
0.348179
0.345513
0.343066
0.340827
0.338784
0.336924
0.335233
0.333697
0.332304
0.331043
0.329918
0.370948
0.365689
0.360554
0.355805
0.351495
0.347652
0.344276
0.341346
0.338832
0.336699
0.33491
0.333433
0.332235
0.331287
0.330562
0.330034
0.32968
0.329488
0.366354
0.357119
0.349252
0.342904
0.337997
0.334408
0.331988
0.330582
0.330051
0.330271
0.331137
0.332555
0.334445
0.336737
0.33937
0.342289
0.345441
0.34882
0.329179
0.293648
0.265349
0.242406
0.223555
0.2079
0.194782
0.183707
0.174296
0.166259
0.159364
0.153429
0.148306
0.143874
0.140035
0.136706
0.13382
0.131317
0.0229127
0.028466
0.0387057
0.0560907
0.0763134
0.0991963
0.125101
0.149561
0.17419
0.199237
0.224727
0.250657
0.277024
0.303826
0.331063
0.358737
0.386853
0.415415
0.44443
0.473907
0.503856
0.534288
0.565215
0.59665
0.628607
0.661101
0.694147
0.727762
0.761961
0.79676
0.832177
0.868227
0.904925
0.942287
0.980326
1.01905
1.05848
1.09862
1.13947
1.18105
1.22334
1.26634
1.31005
1.35445
1.39952
1.44524
1.49156
1.53845
1.58585
1.6337
1.68195
1.73051
1.77933
1.82832
1.87746
1.92671
1.97613
2.02583
2.07495
2.1225
2.16814
2.21151
2.25224
2.28999
2.32439
2.35511
2.38185
2.40434
2.42234
2.43568
2.44422
2.44789
2.44667
2.4406
2.42976
2.41429
2.39437
2.37022
2.34207
2.31021
2.27492
2.23651
2.19529
2.15156
2.10564
2.05784
2.00843
1.95771
1.90596
1.85349
1.80056
1.74754
1.69535
1.64451
1.59726
1.55587
1.51634
1.47756
1.43924
1.40134
1.36388
1.32691
1.29048
1.25465
1.21947
1.18497
1.15119
1.11818
1.08595
1.05453
1.02394
0.994191
0.965293
0.937252
0.910071
0.88375
0.858283
0.833665
0.809887
0.786937
0.764804
0.743471
0.722923
0.703143
0.684112
0.665813
0.648224
0.631326
0.6151
0.599523
0.584576
0.570237
0.556487
0.543305
0.530671
0.518565
0.506967
0.495859
0.485221
0.475037
0.465287
0.455955
0.447025
0.438479
0.430302
0.422478
0.414994
0.407834
0.400984
0.394432
0.388163
0.382166
0.376433
0.370952
0.365707
0.360685
0.355876
0.351268
0.346852
0.342617
0.338555
0.334656
0.330911
0.327311
0.323849
0.320516
0.317302
0.314199
0.311197
0.308285
0.30545
0.302678
0.299947
0.29723
0.294488
0.291658
0.288633
0.285194
0.281031
0.274132
0.0400993
0.0800743
0.107531
0.133632
0.162349
0.19369
0.226569
0.259943
0.293631
0.327599
0.361868
0.396478
0.431478
0.466914
0.502832
0.539271
0.576271
0.613864
0.652082
0.690955
0.730511
0.770777
0.811782
0.853553
0.896119
0.939511
0.98376
1.0289
1.07497
1.12201
1.17005
1.21915
1.26935
1.3207
1.37325
1.42706
1.48218
1.53869
1.59663
1.65608
1.71711
1.77978
1.84417
1.91034
1.97837
2.04831
2.12024
2.19422
2.27028
2.34848
2.42884
2.51135
2.59601
2.68276
2.77152
2.86217
2.95453
3.04836
3.14255
3.23681
3.33058
3.4232
3.51391
3.60187
3.6862
3.766
3.84037
3.90846
3.96945
4.02263
4.0674
4.10326
4.12988
4.14703
4.15464
4.15275
4.14153
4.12127
4.09232
4.05512
4.01019
3.95808
3.89936
3.83464
3.76453
3.68963
3.61055
3.52791
3.44232
3.35447
3.265
3.17484
3.08475
2.99664
2.91202
2.83034
2.75015
2.67095
2.59265
2.51532
2.4391
2.36414
2.29057
2.2185
2.14804
2.07927
2.01227
1.94707
1.88372
1.82225
1.76268
1.705
1.64921
1.59532
1.54329
1.49311
1.44474
1.39817
1.35334
1.31022
1.26878
1.22896
1.19072
1.15402
1.11881
1.08504
1.05267
1.02164
0.991916
0.963446
0.936185
0.910088
0.88511
0.861207
0.838339
0.816463
0.795539
0.775529
0.756394
0.738098
0.720606
0.703884
0.687897
0.672614
0.658004
0.644036
0.630682
0.617914
0.605704
0.594026
0.582855
0.572165
0.561926
0.552113
0.542707
0.533689
0.525045
0.516753
0.508792
0.501145
0.493793
0.486719
0.479904
0.473333
0.466989
0.460856
0.454916
0.449155
0.443556
0.4381
0.43277
0.427545
0.4224
0.417306
0.412223
0.4071
0.401875
0.396463
0.39106
0.386349
0.0674461
0.129604
0.168699
0.202912
0.237784
0.274679
0.313284
0.353025
0.393574
0.434786
0.476618
0.51908
0.5622
0.606014
0.65056
0.69587
0.741971
0.788889
0.836642
0.885247
0.934719
0.985071
1.03631
1.08846
1.14153
1.19553
1.25047
1.30639
1.36329
1.42121
1.48018
1.54022
1.60138
1.66369
1.72721
1.79199
1.85809
1.92556
1.99449
2.06494
2.137
2.21075
2.2863
2.36373
2.44317
2.52471
2.60847
2.69457
2.78313
2.87425
2.96805
3.06461
3.16399
3.26624
3.37134
3.47921
3.58972
3.70249
3.81689
3.93251
4.04869
4.16462
4.27937
4.39185
4.5009
4.60531
4.70384
4.79528
4.87849
4.95244
5.01623
5.06912
5.11057
5.14021
5.15785
5.16347
5.15724
5.13943
5.11049
5.07092
5.02135
4.96246
4.89498
4.81967
4.73729
4.64864
4.55446
4.45553
4.35254
4.24629
4.13736
4.02582
3.91391
3.80273
3.69284
3.58468
3.47798
3.37273
3.26902
3.16701
3.06686
2.96872
2.87272
2.779
2.68763
2.59871
2.51229
2.42842
2.34712
2.2684
2.19227
2.11871
2.04771
1.97924
1.91325
1.84972
1.78858
1.7298
1.6733
1.61904
1.56695
1.51697
1.46903
1.42306
1.37901
1.3368
1.29638
1.25767
1.22061
1.18515
1.15121
1.11874
1.08768
1.05797
1.02956
1.0024
0.976422
0.951588
0.927846
0.905149
0.883452
0.862709
0.84288
0.823923
0.805798
0.788467
0.771895
0.756044
0.740881
0.726372
0.712487
0.699192
0.686458
0.674254
0.662553
0.651326
0.640545
0.630188
0.620233
0.610659
0.601442
0.592561
0.583993
0.575718
0.567716
0.559968
0.552452
0.545152
0.538047
0.531119
0.524347
0.517713
0.511194
0.504768
0.49841
0.492098
0.485832
0.479663
0.473942
0.469698
0.0867296
0.170687
0.220575
0.262204
0.302395
0.343669
0.386548
0.430902
0.476526
0.523286
0.571116
0.619993
0.669919
0.720907
0.772971
0.826121
0.880365
0.935705
0.992136
1.04965
1.10824
1.16789
1.22858
1.2903
1.35303
1.41676
1.48147
1.54715
1.61379
1.6814
1.74997
1.8195
1.89002
1.96153
2.03407
2.10767
2.18238
2.25824
2.33533
2.4137
2.49346
2.57469
2.65752
2.74205
2.82843
2.9168
3.00734
3.10022
3.19561
3.2937
3.39469
3.49875
3.60603
3.71668
3.83076
3.94829
4.06919
4.19306
4.31966
4.44854
4.57902
4.71021
4.84101
4.97019
5.09636
5.21807
5.3338
5.44209
5.54152
5.6308
5.70882
5.77464
5.82755
5.86705
5.89287
5.90493
5.90335
5.8884
5.86055
5.82033
5.76841
5.70555
5.63256
5.55027
5.45954
5.36123
5.25617
5.14522
5.02904
4.9084
4.78395
4.6576
4.53026
4.40294
4.27627
4.15071
4.02643
3.90365
3.78259
3.66348
3.54654
3.43196
3.31992
3.21055
3.10398
3.00031
2.89959
2.8019
2.70725
2.61566
2.52713
2.44165
2.3592
2.27972
2.20319
2.12955
2.05873
1.99067
1.92531
1.86257
1.80237
1.74464
1.68931
1.63628
1.58548
1.53683
1.49026
1.44568
1.40302
1.36221
1.32316
1.28582
1.2501
1.21595
1.1833
1.15208
1.12223
1.09369
1.06641
1.04033
1.0154
0.991559
0.968768
0.946975
0.926136
0.906204
0.887138
0.868897
0.85144
0.83473
0.81873
0.803403
0.788715
0.774633
0.761124
0.748156
0.735698
0.723722
0.712201
0.701106
0.690413
0.680098
0.670137
0.660507
0.651185
0.642149
0.633377
0.624849
0.616545
0.608444
0.60053
0.592784
0.58519
0.577735
0.570412
0.563233
0.556254
0.549619
0.543727
0.539507
0.101787
0.20257
0.261161
0.309211
0.354128
0.39912
0.445355
0.493128
0.542456
0.593299
0.645623
0.69941
0.754653
0.811348
0.869492
0.929076
0.990084
1.0525
1.11628
1.18141
1.24784
1.31552
1.38441
1.45446
1.52562
1.59783
1.67105
1.74523
1.82032
1.89628
1.97307
2.05067
2.12906
2.20822
2.28814
2.36884
2.45034
2.53266
2.61585
2.69999
2.78514
2.87141
2.95892
3.04781
3.13824
3.2304
3.3245
3.42077
3.51946
3.62084
3.72518
3.83276
3.94385
4.05868
4.17744
4.30023
4.42706
4.55771
4.6921
4.82982
4.97016
5.11218
5.25468
5.39626
5.53534
5.67026
5.7993
5.92076
6.03302
6.13458
6.22418
6.30072
6.36339
6.41161
6.44502
6.46349
6.4671
6.45612
6.43098
6.39223
6.34054
6.27666
6.20145
6.11575
6.02044
5.91643
5.8045
5.68568
5.56015
5.4303
5.29693
5.1611
5.02386
4.88604
4.74828
4.61107
4.47481
4.33982
4.20646
4.07502
3.94579
3.81902
3.69492
3.57369
3.45547
3.34039
3.22854
3.12
3.01481
2.91299
2.81456
2.7195
2.62779
2.5394
2.45428
2.37238
2.29362
2.21794
2.14526
2.07551
2.00859
1.94442
1.88292
1.82399
1.76754
1.71349
1.66175
1.61224
1.56485
1.51952
1.47615
1.43468
1.39501
1.35708
1.32081
1.28613
1.25297
1.22127
1.19096
1.16197
1.13426
1.10775
1.08241
1.05816
1.03497
1.01278
0.991547
0.971223
0.951763
0.933126
0.91527
0.898156
0.881745
0.866
0.850886
0.836367
0.822411
0.808985
0.796057
0.783599
0.771581
0.759977
0.74876
0.737904
0.727386
0.717181
0.707268
0.697623
0.688227
0.679062
0.670111
0.661359
0.652798
0.644424
0.636247
0.628305
0.620691
0.613589
0.607367
0.602739
0.113045
0.225457
0.290191
0.343135
0.391866
0.439842
0.488635
0.538882
0.590827
0.644555
0.7001
0.75747
0.816667
0.877685
0.940511
1.00512
1.07149
1.13957
1.20932
1.28068
1.35358
1.42795
1.50371
1.58077
1.65906
1.73849
1.81896
1.90038
1.98268
2.06577
2.14957
2.23401
2.31904
2.40459
2.49063
2.57712
2.66406
2.75145
2.8393
2.92767
3.01661
3.10621
3.19659
3.28791
3.38032
3.47406
3.56937
3.66653
3.76586
3.86772
3.97247
4.08052
4.19224
4.30802
4.42817
4.55293
4.68241
4.81661
4.9556
5.09902
5.24619
5.39606
5.54732
5.69841
5.84758
5.99295
6.13261
6.26468
6.38737
6.49905
6.59831
6.684
6.75523
6.81137
6.85204
6.87705
6.88645
6.88048
6.85954
6.82417
6.77498
6.7127
6.63817
6.55221
6.45563
6.34948
6.2341
6.11158
5.98285
5.84914
5.71151
5.57096
5.42838
5.28454
5.14009
4.99561
4.85158
4.70846
4.56665
4.42656
4.28852
4.15285
4.01982
3.88965
3.76254
3.63865
3.5181
3.401
3.28742
3.17739
3.07094
2.96808
2.86879
2.77305
2.6808
2.592
2.50659
2.42449
2.34562
2.2699
2.19725
2.12757
2.06077
1.99675
1.93543
1.87669
1.82046
1.76663
1.71511
1.66582
1.61865
1.57354
1.53038
1.4891
1.44963
1.41187
1.37576
1.34123
1.3082
1.2766
1.24638
1.21748
1.18982
1.16336
1.13803
1.11378
1.09057
1.06834
1.04704
1.02664
1.00707
0.988302
0.970294
0.953004
0.936393
0.920424
0.905062
0.89027
0.876015
0.862266
0.848991
0.83616
0.823747
0.811722
0.800061
0.78874
0.777734
0.767023
0.756585
0.746401
0.736459
0.72675
0.717269
0.708023
0.699037
0.690365
0.682119
0.674483
0.667768
0.662499
0.120742
0.240223
0.308536
0.364554
0.415871
0.465902
0.516409
0.568258
0.621873
0.677459
0.735118
0.794896
0.856812
0.920867
0.987047
1.05533
1.12567
1.19802
1.27231
1.34848
1.42643
1.50608
1.58732
1.67003
1.75411
1.83942
1.92585
2.01326
2.10154
2.19055
2.28019
2.37032
2.46086
2.5517
2.64276
2.73397
2.82528
2.91664
3.00804
3.09949
3.19103
3.28272
3.37465
3.46696
3.55983
3.65348
3.74819
3.84427
3.94212
4.04216
4.14488
4.2508
4.36046
4.4744
4.59313
4.71705
4.84646
4.98156
5.12262
5.26937
5.42107
5.57661
5.73451
5.89303
6.0502
6.20393
6.35213
6.49274
6.62387
6.74379
6.85103
6.94441
7.02304
7.0863
7.1338
7.16533
7.18091
7.18074
7.16519
7.13475
7.09
7.03154
6.96023
6.87686
6.78186
6.67724
6.56374
6.44261
6.31492
6.18175
6.04406
5.90278
5.75873
5.61267
5.46529
5.31722
5.16901
5.0212
4.87428
4.7287
4.58486
4.44315
4.30388
4.16732
4.03373
3.90329
3.77618
3.65252
3.53241
3.41592
3.3031
3.19397
3.08854
2.98677
2.88865
2.79413
2.70315
2.61565
2.53154
2.45075
2.37319
2.29877
2.22739
2.15896
2.09337
2.03054
1.97035
1.91272
1.85754
1.80473
1.75418
1.70581
1.65952
1.61523
1.57286
1.53232
1.49353
1.45642
1.42091
1.38693
1.35441
1.32329
1.2935
1.26498
1.23767
1.21152
1.18646
1.16244
1.13942
1.11735
1.09617
1.07583
1.05631
1.03755
1.01951
1.00215
0.985436
0.969329
0.953792
0.938792
0.924296
0.910272
0.896691
0.883525
0.870746
0.85833
0.846253
0.834494
0.823034
0.811855
0.800943
0.790297
0.779917
0.769819
0.760037
0.750635
0.741728
0.733483
0.726147
0.720101
0.125203
0.248002
0.317575
0.374822
0.427361
0.478405
0.529738
0.58234
0.63675
0.69326
0.752027
0.813133
0.876617
0.942492
1.01075
1.08137
1.15432
1.22953
1.30695
1.38649
1.46805
1.55153
1.6368
1.72373
1.81217
1.90198
1.993
2.08506
2.17802
2.27169
2.36592
2.46057
2.55546
2.65048
2.74548
2.84036
2.935
3.02934
3.12331
3.21687
3.31001
3.40277
3.4952
3.58741
3.67955
3.77183
3.86453
3.95799
4.05264
4.14899
4.24761
4.34919
4.45444
4.56412
4.67899
4.79971
4.92679
5.06074
5.20202
5.35043
5.50519
5.66502
5.82823
5.99279
6.15649
6.317
6.47203
6.61942
6.75718
6.88352
6.99701
7.09651
7.18121
7.25052
7.30408
7.34169
7.3634
7.36939
7.35995
7.33555
7.29677
7.24385
7.17801
7.10028
7.0114
6.91254
6.80464
6.68875
6.56581
6.43678
6.30255
6.16397
6.02185
5.87695
5.72997
5.58159
5.43241
5.28304
5.13401
4.98583
4.83896
4.69383
4.55082
4.41025
4.2724
4.13753
4.00583
3.87747
3.75259
3.63129
3.51363
3.39967
3.28943
3.1829
3.08008
2.98092
2.8854
2.79343
2.70497
2.61993
2.53822
2.45977
2.38447
2.31224
2.24297
2.17657
2.11293
2.05196
1.99355
1.93762
1.88405
1.83277
1.78367
1.73667
1.69168
1.64861
1.60738
1.56791
1.53013
1.49395
1.45931
1.42614
1.39437
1.36394
1.33477
1.30682
1.28003
1.25433
1.22967
1.20601
1.18329
1.16147
1.14049
1.12031
1.10089
1.08219
1.06417
1.04678
1.02999
1.01377
0.998079
0.982883
0.968154
0.953861
0.939978
0.92648
0.913343
0.900546
0.888072
0.875907
0.864037
0.852464
0.841194
0.830248
0.819667
0.809518
0.79991
0.790985
0.782929
0.776022
0.126815
0.25006
0.318961
0.375753
0.42818
0.479193
0.530476
0.583018
0.637397
0.693952
0.752878
0.814285
0.878235
0.944757
1.01386
1.08552
1.15973
1.23642
1.31554
1.39699
1.48069
1.56651
1.65431
1.74396
1.83529
1.92813
2.02228
2.11757
2.2138
2.31076
2.40826
2.50611
2.60411
2.70208
2.79985
2.89726
2.99416
3.09042
3.18595
3.28064
3.37446
3.46737
3.5594
3.65059
3.74106
3.83099
3.92063
4.01032
4.10051
4.19174
4.28471
4.38023
4.47924
4.58277
4.69188
4.80763
4.93087
5.06247
5.20309
5.35256
5.50996
5.67373
5.84182
6.01182
6.18119
6.34732
6.50776
6.66026
6.80285
6.93367
7.05139
7.15505
7.24402
7.31786
7.37618
7.41882
7.44601
7.45795
7.45474
7.43693
7.4053
7.36036
7.30294
7.23381
7.15376
7.06364
6.96428
6.85654
6.74125
6.61927
6.49142
6.35849
6.22127
6.08051
5.93692
5.7912
5.64398
5.49589
5.34753
5.19943
5.05211
4.90605
4.76166
4.61931
4.47935
4.34206
4.20769
4.07644
3.94848
3.82396
3.70296
3.58557
3.47183
3.36176
3.25538
3.15267
3.05359
2.9581
2.86615
2.77766
2.69257
2.61079
2.53223
2.4568
2.38441
2.31496
2.24836
2.1845
2.12329
2.06462
2.00841
1.95455
1.90295
1.85353
1.80619
1.76084
1.71741
1.6758
1.63594
1.59775
1.56116
1.5261
1.49249
1.46027
1.42938
1.39975
1.37132
1.34403
1.31783
1.29266
1.26848
1.24522
1.22285
1.20131
1.18056
1.16056
1.14127
1.12264
1.10463
1.08722
1.07035
1.054
1.03814
1.02274
1.00777
0.993199
0.979012
0.965187
0.951709
0.938563
0.925743
0.913249
0.901093
0.889299
0.87791
0.866994
0.856646
0.846981
0.838133
0.830317
0.125951
0.247694
0.314472
0.369431
0.420581
0.470626
0.521058
0.572781
0.626352
0.682119
0.740296
0.801019
0.864372
0.930406
0.999145
1.07059
1.14474
1.22153
1.30093
1.38286
1.4672
1.55386
1.64269
1.73353
1.82621
1.92054
2.01631
2.11331
2.21132
2.3101
2.40943
2.50906
2.60879
2.70837
2.8076
2.90629
3.00424
3.10128
3.19727
3.29208
3.38561
3.47778
3.56856
3.65796
3.74605
3.83295
3.91887
4.00412
4.08914
4.17452
4.26101
4.34956
4.44135
4.5377
4.64013
4.75018
4.86925
4.99869
5.13926
5.29071
5.4518
5.62045
5.79403
5.96963
6.14427
6.31508
6.47951
6.63536
6.78077
6.91364
7.03295
7.13814
7.2289
7.3051
7.36622
7.41212
7.44341
7.46047
7.46359
7.45322
7.4299
7.39412
7.34645
7.28747
7.21783
7.13816
7.04916
6.95153
6.84599
6.73328
6.61412
6.48927
6.35946
6.2254
6.0878
5.94734
5.80468
5.66046
5.51529
5.36975
5.22438
5.0797
4.93616
4.79418
4.65415
4.51639
4.38119
4.2488
4.11943
3.99324
3.87038
3.75094
3.63501
3.52264
3.41384
3.30864
3.20702
3.10894
3.01438
2.92327
2.83555
2.75115
2.66999
2.59199
2.51706
2.44511
2.37604
2.30976
2.24617
2.18518
2.12669
2.07061
2.01684
1.9653
1.91589
1.86852
1.82312
1.7796
1.73787
1.69786
1.6595
1.62271
1.58742
1.55356
1.52106
1.48987
1.45992
1.43114
1.40349
1.3769
1.35133
1.32672
1.30302
1.28018
1.25816
1.23691
1.21639
1.19656
1.17737
1.1588
1.14079
1.12332
1.10635
1.08986
1.07382
1.0582
1.04298
1.02814
1.01367
0.999555
0.985796
0.97239
0.959353
0.946711
0.934507
0.922805
0.911686
0.901238
0.891555
0.88281
0.122873
0.242001
0.305793
0.358018
0.407047
0.45539
0.504296
0.554525
0.606571
0.660767
0.71734
0.776448
0.838198
0.902666
0.969898
1.03992
1.11273
1.1883
1.26661
1.34758
1.43112
1.51713
1.60546
1.69595
1.78843
1.88269
1.97852
2.07567
2.17391
2.27297
2.3726
2.47253
2.5725
2.67226
2.77157
2.87018
2.96789
3.06448
3.15979
3.25364
3.3459
3.43647
3.52528
3.61229
3.69753
3.78107
3.86309
3.94387
4.02382
4.10354
4.18383
4.26578
4.35077
4.44048
4.53694
4.64239
4.75887
4.88839
5.03158
5.18785
5.35545
5.53119
5.71168
5.89337
6.07287
6.24711
6.41352
6.57016
6.7159
6.84757
6.96506
7.06839
7.15762
7.23284
7.29412
7.34166
7.37586
7.39709
7.40568
7.40199
7.38642
7.35936
7.3212
7.27239
7.21339
7.14468
7.06678
6.98025
6.88566
6.78364
6.67481
6.55981
6.43932
6.31398
6.18447
6.05145
5.91555
5.77742
5.63766
5.49687
5.35561
5.21441
5.07378
4.93417
4.79598
4.6596
4.52534
4.3935
4.26431
4.13799
4.0147
3.89459
3.77776
3.66429
3.55424
3.44762
3.34447
3.24476
3.14847
3.05557
2.96601
2.87973
2.79666
2.71673
2.63986
2.56596
2.49494
2.42673
2.36122
2.29833
2.23796
2.18003
2.12443
2.07109
2.01991
1.9708
1.9237
1.8785
1.83513
1.79351
1.75357
1.71523
1.67842
1.64307
1.60912
1.5765
1.54514
1.515
1.486
1.45809
1.43122
1.40534
1.38039
1.35633
1.3331
1.31067
1.28898
1.268
1.24769
1.22799
1.20888
1.19033
1.17229
1.15474
1.13766
1.12101
1.10478
1.08896
1.07352
1.05846
1.04378
1.02948
1.01557
1.00209
0.989069
0.97657
0.964662
0.953409
0.942871
0.933198
0.11765
0.23352
0.294182
0.343492
0.390058
0.436263
0.483138
0.531308
0.581204
0.633141
0.687353
0.744015
0.803261
0.865188
0.929867
0.997344
1.06764
1.14076
1.21668
1.29535
1.37668
1.4606
1.54695
1.63559
1.72633
1.81897
1.91329
2.00902
2.10591
2.20368
2.30205
2.40074
2.49945
2.59791
2.69584
2.793
2.88915
2.98406
3.07753
3.1694
3.25951
3.34775
3.43403
3.51832
3.60061
3.68098
3.75958
3.83668
3.91269
3.98823
4.06418
4.14173
4.22248
4.30849
4.40237
4.50721
4.62565
4.76024
4.911
5.07669
5.25521
5.44079
5.62943
5.81709
6.00006
6.17527
6.34034
6.4936
6.63392
6.76041
6.87281
6.97124
7.05605
7.12764
7.18641
7.23274
7.26706
7.28981
7.30134
7.30198
7.29203
7.2718
7.24157
7.20163
7.15228
7.09386
7.02671
6.95123
6.86785
6.77703
6.67927
6.57512
6.46512
6.34985
6.22992
6.10593
5.97848
5.84819
5.71564
5.58143
5.44611
5.31024
5.17433
5.03885
4.90425
4.77093
4.63925
4.50953
4.38204
4.25704
4.13472
4.01525
3.89878
3.7854
3.67521
3.56826
3.46458
3.36419
3.26708
3.17324
3.08263
2.99522
2.91093
2.82973
2.75153
2.67626
2.60385
2.53421
2.46727
2.40292
2.34109
2.28169
2.22463
2.16983
2.1172
2.06666
2.01812
1.97151
1.92674
1.88374
1.84243
1.80274
1.7646
1.72794
1.69269
1.65879
1.62618
1.59479
1.56457
1.53545
1.5074
1.48034
1.45424
1.42904
1.40469
1.38115
1.35837
1.33631
1.31492
1.29416
1.274
1.25441
1.23536
1.2168
1.19872
1.18109
1.1639
1.14712
1.13075
1.11478
1.0992
1.08403
1.06928
1.05497
1.04114
1.02785
1.01515
1.00309
0.991699
0.981118
0.111621
0.222438
0.280554
0.327588
0.371913
0.415865
0.460424
0.506159
0.553466
0.602645
0.653933
0.70752
0.763556
0.822161
0.883429
0.94743
1.01421
1.08378
1.15616
1.23129
1.30914
1.3896
1.47258
1.55791
1.64542
1.73491
1.82615
1.91889
2.01285
2.10774
2.20327
2.29914
2.39505
2.4907
2.58582
2.68014
2.77343
2.86546
2.95604
3.04502
3.13226
3.21768
3.30121
3.38286
3.46265
3.5407
3.6172
3.69248
3.76702
3.84151
3.91695
3.99472
4.0767
4.16538
4.26405
4.37636
4.50599
4.65414
4.81967
4.99975
5.19023
5.38594
5.5818
5.77326
5.9566
6.12901
6.28864
6.43439
6.5658
6.68278
6.78558
6.87472
6.95086
7.01471
7.06691
7.10807
7.13871
7.15932
7.17029
7.17194
7.16454
7.1483
7.1234
7.09002
7.04832
6.99848
6.9407
6.87521
6.80227
6.7222
6.63536
6.54213
6.44296
6.33832
6.22872
6.11467
5.99674
5.87546
5.7514
5.62512
5.49716
5.36806
5.23833
5.10848
4.97894
4.85015
4.72249
4.59629
4.47188
4.34953
4.22945
4.11187
3.99694
3.8848
3.77556
3.6693
3.56608
3.46594
3.36889
3.27495
3.18409
3.09628
3.0115
2.92969
2.85079
2.77475
2.7015
2.63096
2.56307
2.49773
2.43487
2.37442
2.31629
2.26039
2.20665
2.15498
2.10532
2.05757
2.01167
1.96753
1.92508
1.88426
1.845
1.80721
1.77085
1.73584
1.70213
1.66965
1.63834
1.60815
1.57903
1.55093
1.52378
1.49755
1.47218
1.44761
1.42381
1.40074
1.37835
1.35661
1.33548
1.31492
1.29491
1.27541
1.2564
1.23785
1.21975
1.20208
1.18482
1.16798
1.15155
1.13555
1.11998
1.10488
1.09027
1.0762
1.06272
1.04986
1.03764
1.02618
0.104345
0.20946
0.265651
0.311065
0.353488
0.395245
0.437377
0.480469
0.524914
0.571008
0.618989
0.669054
0.721368
0.776067
0.833266
0.893055
0.9555
1.02065
1.08851
1.15909
1.23234
1.30821
1.38658
1.46734
1.55031
1.6353
1.7221
1.81044
1.90005
1.99065
2.08193
2.17359
2.26533
2.35686
2.44791
2.53821
2.62757
2.71578
2.80271
2.88824
2.9723
3.05489
3.13603
3.2158
3.29435
3.37192
3.44883
3.52553
3.60269
3.68119
3.76226
3.8476
3.93944
4.04084
4.15583
4.2882
4.44069
4.61223
4.79977
4.99867
5.20334
5.40806
5.60757
5.79763
5.97515
6.13815
6.28564
6.41741
6.53376
6.63535
6.72301
6.79767
6.86034
6.91195
6.95334
6.98524
7.00829
7.023
7.02978
7.02893
7.02068
7.00518
6.98254
6.95284
6.91611
6.87242
6.82183
6.76441
6.70028
6.62961
6.55261
6.46952
6.38066
6.28637
6.18704
6.08311
5.97504
5.8633
5.7484
5.63084
5.51113
5.38979
5.26732
5.14419
5.02087
4.89777
4.7753
4.65382
4.53365
4.41509
4.2984
4.1838
4.07148
3.96162
3.85433
3.74973
3.6479
3.54889
3.45276
3.35952
3.26918
3.18172
3.09713
3.01538
2.93642
2.8602
2.78667
2.71577
2.64743
2.58157
2.51814
2.45706
2.39825
2.34164
2.28714
2.23469
2.18421
2.13563
2.08887
2.04386
2.00053
1.95882
1.91864
1.87995
1.84267
1.80674
1.7721
1.73869
1.70646
1.67535
1.64531
1.61629
1.58822
1.56106
1.53477
1.50928
1.48457
1.46059
1.4373
1.41466
1.39264
1.3712
1.35031
1.32995
1.31008
1.29069
1.27175
1.25325
1.23518
1.21754
1.20032
1.18353
1.1672
1.15134
1.13598
1.12117
1.10694
1.09332
1.0803
1.06802
0.0961326
0.195448
0.250136
0.294326
0.335117
0.374829
0.414577
0.454995
0.496491
0.539365
0.583858
0.630171
0.678474
0.728916
0.781625
0.836708
0.89425
0.954318
1.01695
1.08217
1.14996
1.22028
1.29306
1.36818
1.4455
1.52484
1.60599
1.68872
1.77275
1.85782
1.94362
2.02988
2.11629
2.20261
2.28858
2.37401
2.45873
2.54264
2.62566
2.70782
2.78916
2.86981
2.94997
3.02989
3.10993
3.19052
3.27224
3.35579
3.44212
3.53247
3.62844
3.73216
3.84648
3.97525
4.12279
4.29145
4.47979
4.68383
4.89794
5.11566
5.33066
5.53742
5.73164
5.91037
6.07197
6.21585
6.34225
6.45197
6.54616
6.62609
6.69309
6.74844
6.79334
6.82884
6.85587
6.8752
6.88747
6.89316
6.89267
6.88626
6.8741
6.85632
6.83293
6.80395
6.76933
6.72903
6.683
6.63122
6.57367
6.51039
6.44144
6.36696
6.28712
6.20214
6.11229
6.01791
5.91935
5.81699
5.71127
5.60263
5.49152
5.37841
5.26377
5.14804
5.03167
4.91508
4.79866
4.68278
4.56777
4.45393
4.34155
4.23087
4.12209
4.0154
3.91095
3.80887
3.70927
3.61222
3.51779
3.42602
3.33692
3.25052
3.16679
3.08574
3.00732
2.93151
2.85826
2.78752
2.71924
2.65335
2.5898
2.52852
2.46944
2.4125
2.35762
2.30473
2.25377
2.20467
2.15735
2.11175
2.0678
2.02544
1.9846
1.94522
1.90724
1.87059
1.83522
1.80107
1.76809
1.73623
1.70542
1.67562
1.64676
1.61881
1.59171
1.56543
1.53992
1.51515
1.49106
1.46764
1.44483
1.42262
1.40096
1.37982
1.35919
1.33904
1.31936
1.30012
1.28131
1.26294
1.245
1.2275
1.21047
1.19391
1.17786
1.16235
1.14742
1.13307
1.11932
1.10626
0.0874644
0.181014
0.234413
0.277601
0.316979
0.354847
0.392376
0.430239
0.468868
0.508574
0.549599
0.59214
0.636372
0.682444
0.730491
0.780631
0.832966
0.887578
0.94453
1.00386
1.06559
1.12968
1.19611
1.26478
1.33558
1.40834
1.48289
1.559
1.63644
1.71495
1.79428
1.87417
1.95438
2.03472
2.11502
2.19518
2.27515
2.35497
2.43475
2.51469
2.59506
2.67623
2.75866
2.8429
2.92959
3.01952
3.11358
3.21291
3.31885
3.43314
3.55794
3.69609
3.85136
4.02808
4.22812
4.44698
4.67871
4.91593
5.15103
5.37723
5.58918
5.78318
5.95717
6.11044
6.24334
6.35694
6.45278
6.53259
6.59816
6.65121
6.69332
6.72588
6.75011
6.76704
6.77753
6.78225
6.78175
6.77645
6.76664
6.75252
6.73421
6.71175
6.68514
6.65431
6.61917
6.57962
6.53554
6.48682
6.43337
6.37511
6.31202
6.24412
6.17146
6.09417
6.0124
5.92636
5.83633
5.74258
5.64547
5.54536
5.44263
5.33769
5.23096
5.12285
5.01376
4.90409
4.79421
4.68449
4.57525
4.46681
4.35943
4.25337
4.14885
4.04607
3.94521
3.84639
3.74974
3.65537
3.56334
3.47372
3.38654
3.30183
3.2196
3.13985
3.06256
2.98771
2.91528
2.84522
2.7775
2.71205
2.64883
2.58779
2.52885
2.47197
2.41708
2.36412
2.31302
2.26372
2.21615
2.17026
2.12597
2.08323
2.04198
2.00215
1.9637
1.92655
1.89066
1.85597
1.82243
1.78998
1.75856
1.72814
1.69865
1.67005
1.64231
1.61538
1.58921
1.56378
1.53903
1.51494
1.49147
1.46859
1.44627
1.42448
1.4032
1.38239
1.36206
1.34217
1.32273
1.30372
1.28515
1.26702
1.24936
1.23218
1.2155
1.19936
1.18378
1.16877
1.15433
1.14057
0.0787488
0.166559
0.218712
0.261031
0.299226
0.335532
0.371135
0.406732
0.442766
0.479553
0.517333
0.556299
0.596619
0.638441
0.6819
0.727118
0.774205
0.82326
0.874362
0.927571
0.982923
1.04043
1.10007
1.16178
1.22548
1.29104
1.35831
1.42711
1.49724
1.56849
1.64068
1.71364
1.78723
1.86138
1.93608
2.01143
2.08761
2.16491
2.24373
2.3246
2.40814
2.49509
2.58632
2.68278
2.78559
2.89597
3.01535
3.14537
3.28797
3.44553
3.62099
3.81825
4.04114
4.28925
4.55214
4.82063
5.08528
5.33768
5.57135
5.78201
5.96751
6.12745
6.26271
6.37508
6.46681
6.54034
6.59812
6.64245
6.67537
6.6987
6.71393
6.72235
6.72499
6.72266
6.71603
6.70559
6.69171
6.67467
6.65463
6.6317
6.60592
6.57728
6.54571
6.51113
6.47341
6.4324
6.38797
6.33995
6.2882
6.23261
6.17307
6.10952
6.04195
5.97038
5.89488
5.81556
5.73261
5.64622
5.55665
5.46418
5.36913
5.27183
5.17264
5.07191
4.97
4.86727
4.76408
4.66074
4.55758
4.45488
4.35294
4.25198
4.15225
4.05393
3.95721
3.86223