/*--------------------------------*- C++ -*----------------------------------*\
| =========                 |                                                 |
| \\      /  F ield         | OpenFOAM: The Open Source CFD Toolbox           |
|  \\    /   O peration     | Version:  1.4.2                                 |
|   \\  /    A nd           | Web:      http://www.openfoam.org               |
|    \\/     M anipulation  |                                                 |
\*---------------------------------------------------------------------------*/
FoamFile
{
    version     2.0;
    format      ascii;
    class       volScalarField;
    object      p;
    location    "250";
}
// * * * * * * * * * * * * * * * * * * * * * * * * * * * * * * * * * * * * * //

dimensions      [0 2 -2 0 0 0 0];

internalField   nonuniform List<scalar> 
12225
(
-1.57882
-2.41505
-2.66083
-2.75297
-2.85141
-2.94588
-3.02617
-3.0958
-3.15849
-3.21568
-3.26804
-3.31619
-3.36076
-3.40256
-3.44271
-3.48332
-3.52781
-3.59626
-1.74516
-2.42219
-2.6588
-2.75455
-2.85203
-2.94481
-3.02393
-3.09264
-3.15447
-3.21084
-3.26241
-3.30979
-3.35362
-3.39466
-3.43396
-3.47336
-3.51611
-3.577
-1.92424
-2.41813
-2.64795
-2.75216
-2.84981
-2.94119
-3.01967
-3.08812
-3.14971
-3.20582
-3.25711
-3.30419
-3.34765
-3.38813
-3.42638
-3.46342
-3.49956
-3.53707
-2.08156
-2.4358
-2.65085
-2.75938
-2.85544
-2.94434
-3.02152
-3.08929
-3.1504
-3.20608
-3.25702
-3.30374
-3.34676
-3.38653
-3.42344
-3.45766
-3.48781
-3.51221
-2.21177
-2.46758
-2.66179
-2.77082
-2.86448
-2.95052
-3.02594
-3.09262
-3.15285
-3.20779
-3.25805
-3.30412
-3.3464
-3.38514
-3.42042
-3.45183
-3.47732
-3.49434
-2.32546
-2.50801
-2.67808
-2.78461
-2.87517
-2.95821
-3.03179
-3.09731
-3.15665
-3.21083
-3.2604
-3.30579
-3.34728
-3.385
-3.41879
-3.44798
-3.47063
-3.48462
-2.42663
-2.55456
-2.69947
-2.80075
-2.88742
-2.96705
-3.03847
-3.10265
-3.16104
-3.21446
-3.26339
-3.30816
-3.34896
-3.38583
-3.41849
-3.44629
-3.46771
-3.48148
-2.50385
-2.59753
-2.72172
-2.81661
-2.89927
-2.97565
-3.04492
-3.10772
-3.16514
-3.21783
-3.26619
-3.31048
-3.35082
-3.38718
-3.41931
-3.44666
-3.46816
-3.48319
-2.56605
-2.63685
-2.74373
-2.8324
-2.9111
-2.98436
-3.05153
-3.11294
-3.16936
-3.22132
-3.26913
-3.31299
-3.35298
-3.38905
-3.42099
-3.44838
-3.47059
-3.48729
-2.62775
-2.68011
-2.76981
-2.85127
-2.92534
-2.99502
-3.05975
-3.11951
-3.17476
-3.22586
-3.27306
-3.31648
-3.35619
-3.39213
-3.42416
-3.45203
-3.47544
-3.49433
-2.68825
-2.72644
-2.80001
-2.87336
-2.94219
-3.00788
-3.06981
-3.12765
-3.18156
-3.23173
-3.27829
-3.32133
-3.36087
-3.3969
-3.42935
-3.45814
-3.48324
-3.5047
-2.74687
-2.77471
-2.83394
-2.89866
-2.96181
-3.02316
-3.08198
-3.13766
-3.19007
-3.23922
-3.28515
-3.32788
-3.36743
-3.40382
-3.43705
-3.46718
-3.49433
-3.51862
-2.80301
-2.82356
-2.87075
-2.92688
-2.98413
-3.04097
-3.09645
-3.14979
-3.20058
-3.24868
-3.29401
-3.33655
-3.37631
-3.41333
-3.44767
-3.47947
-3.50891
-3.53615
-2.8559
-2.87146
-2.90912
-2.9573
-3.00873
-3.06111
-3.11323
-3.16415
-3.2133
-3.26037
-3.30519
-3.3477
-3.38788
-3.42578
-3.4615
-3.4952
-3.52707
-3.55723
-2.90441
-2.91665
-2.94719
-2.9886
-3.03475
-3.08301
-3.13197
-3.18061
-3.22822
-3.27439
-3.31887
-3.36154
-3.40235
-3.44136
-3.47865
-3.51438
-3.54868
-3.58166
-2.94676
-2.9569
-2.98253
-3.01878
-3.06065
-3.10549
-3.15183
-3.19858
-3.24498
-3.29053
-3.33491
-3.37797
-3.41964
-3.45993
-3.49891
-3.53669
-3.57334
-3.60894
-2.9801
-2.98907
-3.01185
-3.04489
-3.08397
-3.12658
-3.17123
-3.21683
-3.26261
-3.308
-3.35268
-3.39644
-3.43919
-3.4809
-3.5216
-3.56136
-3.6002
-3.63814
-2.99839
-3.00712
-3.02928
-3.06157
-3.09998
-3.14211
-3.1865
-3.23209
-3.27811
-3.32401
-3.36944
-3.4142
-3.45815
-3.50127
-3.54354
-3.58498
-3.62559
-3.66532
-2.99905
-3.00846
-3.03218
-3.06617
-3.10607
-3.14946
-3.19499
-3.24165
-3.2887
-3.33564
-3.38215
-3.42802
-3.47315
-3.51748
-3.56099
-3.60368
-3.64551
-3.68642
-2.98523
-2.99627
-3.02359
-3.06133
-3.10432
-3.15022
-3.19783
-3.24624
-3.2948
-3.34306
-3.39077
-3.43776
-3.48393
-3.52925
-3.5737
-3.61726
-3.65989
-3.70149
-2.95963
-2.97361
-3.00685
-3.05018
-3.09742
-3.14663
-3.1969
-3.24745
-3.29773
-3.34741
-3.39633
-3.44437
-3.49147
-3.53761
-3.58276
-3.62694
-3.67009
-3.71208
-2.92367
-2.94268
-2.98475
-3.03528
-3.08752
-3.1405
-3.19371
-3.24652
-3.29853
-3.3496
-3.39964
-3.44862
-3.49651
-3.5433
-3.58901
-3.63362
-3.6771
-3.71928
-2.87783
-2.90536
-2.95983
-3.01877
-3.07627
-3.13316
-3.18936
-3.24435
-3.29799
-3.3503
-3.40132
-3.45109
-3.49963
-3.54695
-3.59307
-3.63798
-3.68165
-3.72387
-2.82174
-2.86348
-2.93447
-3.00227
-3.06481
-3.12553
-3.18455
-3.24152
-3.29656
-3.34993
-3.40177
-3.45218
-3.50122
-3.54895
-3.59537
-3.64049
-3.68426
-3.7264
-2.75435
-2.81912
-2.91081
-2.98695
-3.05391
-3.11818
-3.17973
-3.23834
-3.29451
-3.34869
-3.40115
-3.45203
-3.50144
-3.54947
-3.59613
-3.6414
-3.68521
-3.7272
-2.67402
-2.77477
-2.89052
-2.97332
-3.04377
-3.11117
-3.17484
-3.23472
-3.29171
-3.34649
-3.39937
-3.45058
-3.50025
-3.5485
-3.59536
-3.6408
-3.68471
-3.7266
-2.57741
-2.73416
-2.87483
-2.96133
-3.03435
-3.10452
-3.16995
-3.23081
-3.28845
-3.34371
-3.39697
-3.44848
-3.49844
-3.54696
-3.59411
-3.63988
-3.68412
-3.72625
-2.45294
-2.70315
-2.86634
-2.95188
-3.02638
-3.09902
-3.16592
-3.22753
-3.28566
-3.34129
-3.39483
-3.44656
-3.49669
-3.54541
-3.59281
-3.63894
-3.6837
-3.72658
-2.2921
-2.69243
-2.87347
-2.95289
-3.02697
-3.10098
-3.16854
-3.23032
-3.28851
-3.34418
-3.39776
-3.44951
-3.49967
-3.54844
-3.59599
-3.64249
-3.68806
-3.73289
-2.12924
-2.67589
-2.87344
-2.95017
-3.02482
-3.10018
-3.16851
-3.23068
-3.28917
-3.34511
-3.39894
-3.45094
-3.50135
-3.55039
-3.59823
-3.64517
-3.69165
-3.74148
-3.78042
-3.78504
-3.79255
-3.80415
-3.82333
-3.85249
-3.89311
-3.94598
-4.01176
-4.09108
-4.18426
-4.29144
-4.41256
-4.54745
-4.69581
-4.8573
-5.03147
-5.21787
-5.41601
-5.62537
-5.84545
-6.07573
-6.31571
-6.56487
-6.82272
-7.08874
-7.36242
-7.64322
-7.93059
-8.22394
-8.52264
-8.82603
-9.13336
-9.44381
-9.75648
-10.0703
-10.3842
-10.6969
-11.0069
-11.3126
-11.6122
-11.9037
-12.1848
-12.453
-12.7055
-12.9392
-13.1507
-13.3363
-13.4921
-13.6137
-13.6966
-13.736
-13.727
-13.6645
-13.5437
-13.3603
-13.1096
-12.7864
-12.3863
-11.9073
-11.3485
-10.7105
-9.99559
-9.20715
-8.35012
-7.43072
-6.45625
-5.43497
-4.37581
-3.28817
-2.18165
-1.0658
0.0500604
1.15712
2.24719
3.31284
4.34754
5.34566
6.30254
7.21447
8.07867
8.89323
9.65703
10.3697
11.0315
11.6432
12.2062
12.7222
13.1932
13.6217
14.0103
14.3615
14.6781
14.9643
15.228
15.4679
15.6784
15.862
16.0217
16.1599
16.2787
16.3804
16.4666
16.5391
16.5995
16.6493
16.6895
16.7216
16.7464
16.7649
16.778
16.7864
16.7909
16.7919
16.7901
16.7859
16.7798
16.772
16.763
16.753
16.7422
16.7308
16.7191
16.7072
16.6952
16.6832
16.6714
16.6597
16.6483
16.6372
16.6264
16.6161
16.6061
16.5965
16.5873
16.5785
16.5702
16.5622
16.5547
16.5475
16.5407
16.5343
16.5282
16.5224
16.5169
16.5117
16.5068
16.5021
16.4976
16.4934
16.4893
16.4854
16.4815
16.4778
16.4742
16.4706
16.467
16.4634
16.4598
16.4561
16.4523
16.4484
16.4444
16.4402
16.4359
16.4314
16.4267
16.422
16.4173
16.4127
16.4083
16.4046
16.4021
16.4014
16.4038
16.4113
16.4277
16.459
16.5224
16.6316
-3.7444
-3.75833
-3.77188
-3.78073
-3.79295
-3.81427
-3.84712
-3.89272
-3.95187
-4.02504
-4.11246
-4.21416
-4.33004
-4.45984
-4.60325
-4.75986
-4.92922
-5.11085
-5.30425
-5.50891
-5.72433
-5.95
-6.18542
-6.4301
-6.68357
-6.94533
-7.2149
-7.49177
-7.77541
-8.06529
-8.36081
-8.66134
-8.96619
-9.27458
-9.58566
-9.89847
-10.212
-10.5249
-10.836
-11.1436
-11.4462
-11.7418
-12.0282
-12.3032
-12.564
-12.8079
-13.0315
-13.2314
-13.4038
-13.5446
-13.6495
-13.7138
-13.7326
-13.7011
-13.6147
-13.4688
-13.2584
-12.9776
-12.6217
-12.1885
-11.6769
-11.0869
-10.4199
-9.67868
-8.86754
-7.99196
-7.05861
-6.07515
-5.05002
-3.99221
-2.911
-1.81574
-0.715607
0.38059
1.46459
2.52885
3.56659
4.57196
5.53996
6.46657
7.34862
8.18383
8.97072
9.70854
10.3972
11.0371
11.6293
12.1752
12.6765
13.135
13.5523
13.9312
14.2771
14.5918
14.8748
15.1278
15.3523
15.5509
15.7259
15.8795
16.0137
16.1305
16.2315
16.3185
16.3928
16.4559
16.509
16.5532
16.5896
16.619
16.6425
16.6606
16.6742
16.6838
16.6901
16.6934
16.6942
16.6929
16.6899
16.6855
16.6799
16.6734
16.6661
16.6583
16.6501
16.6417
16.6331
16.6244
16.6157
16.6072
16.5987
16.5905
16.5825
16.5747
16.5672
16.5599
16.553
16.5463
16.5399
16.5338
16.528
16.5225
16.5172
16.5122
16.5074
16.5029
16.4985
16.4944
16.4904
16.4866
16.4829
16.4793
16.4758
16.4724
16.4691
16.4657
16.4623
16.4589
16.4554
16.4519
16.4482
16.4445
16.4405
16.4365
16.4322
16.4278
16.4232
16.4186
16.4139
16.4094
16.4051
16.4015
16.3991
16.3986
16.4013
16.4091
16.4256
16.4563
16.5157
16.5978
-3.69274
-3.72019
-3.7466
-3.76817
-3.79283
-3.82484
-3.86619
-3.91828
-3.98217
-4.05859
-4.14795
-4.25047
-4.36617
-4.49494
-4.63656
-4.79073
-4.95711
-5.1353
-5.3249
-5.52548
-5.7366
-5.95785
-6.18878
-6.42896
-6.67796
-6.93533
-7.20064
-7.47343
-7.75319
-8.03943
-8.33159
-8.62907
-8.93119
-9.23724
-9.54637
-9.85769
-10.1702
-10.4827
-10.7939
-11.1023
-11.4064
-11.7044
-11.9941
-12.2733
-12.5396
-12.7901
-13.0218
-13.2313
-13.415
-13.569
-13.6889
-13.7705
-13.8088
-13.7992
-13.737
-13.6178
-13.436
-13.185
-12.8605
-12.4597
-11.9812
-11.4244
-10.7906
-10.082
-9.30254
-8.45731
-7.55268
-6.59601
-5.59551
-4.55999
-3.4986
-2.42059
-1.33508
-0.250864
0.823812
1.88136
2.915
3.91878
4.88766
5.8175
6.70502
7.54783
8.3443
9.09352
9.79525
10.4497
11.0577
11.6203
12.1385
12.6144
13.05
13.452
13.8222
14.1576
14.4611
14.735
14.9805
15.2
15.3955
15.569
15.7226
15.8579
15.9768
16.0807
16.1711
16.2495
16.317
16.3749
16.4241
16.4656
16.5003
16.5291
16.5525
16.5714
16.5862
16.5975
16.6057
16.6114
16.6147
16.6162
16.6161
16.6146
16.612
16.6085
16.6043
16.5994
16.5942
16.5886
16.5828
16.5768
16.5708
16.5647
16.5587
16.5527
16.5469
16.5412
16.5357
16.5303
16.5251
16.5201
16.5153
16.5106
16.5062
16.5019
16.4978
16.4939
16.4901
16.4865
16.483
16.4796
16.4763
16.473
16.4698
16.4667
16.4636
16.4604
16.4572
16.454
16.4507
16.4473
16.4437
16.44
16.4362
16.4322
16.428
16.4236
16.4191
16.4144
16.4098
16.4052
16.401
16.3974
16.3949
16.3943
16.3968
16.404
16.4191
16.4457
16.4946
16.5449
-3.66068
-3.70173
-3.74268
-3.77648
-3.81267
-3.8555
-3.90654
-3.96699
-4.03785
-4.11986
-4.21352
-4.31914
-4.43688
-4.56673
-4.7086
-4.86232
-5.02766
-5.20434
-5.39204
-5.59043
-5.79918
-6.01791
-6.24627
-6.48389
-6.73039
-6.98539
-7.2485
-7.5193
-7.79734
-8.08217
-8.37326
-8.67005
-8.97193
-9.27818
-9.58805
-9.90065
-10.215
-10.53
-10.8445
-11.1569
-11.4658
-11.7694
-12.0656
-12.3525
-12.6273
-12.8876
-13.1301
-13.3518
-13.5488
-13.7174
-13.8533
-13.952
-14.0086
-14.0183
-13.9763
-13.8781
-13.7171
-13.4864
-13.1815
-12.7992
-12.3379
-11.7968
-11.1769
-10.4804
-9.71112
-8.87423
-7.97613
-7.02433
-6.02721
-4.99375
-3.93331
-2.85532
-1.76906
-0.683443
0.393176
1.45315
2.48964
3.49671
4.46932
5.40333
6.29547
7.14337
7.94543
8.70069
9.40888
10.0701
10.6849
11.2542
11.7798
12.2666
12.7179
13.1348
13.5164
13.8636
14.1794
14.4657
14.7241
14.9564
15.1645
15.3505
15.5161
15.6631
15.7933
15.9081
16.009
16.0974
16.1745
16.2414
16.2993
16.349
16.3916
16.4276
16.458
16.4834
16.5044
16.5214
16.5351
16.5457
16.5538
16.5597
16.5637
16.566
16.567
16.5668
16.5656
16.5636
16.561
16.5579
16.5543
16.5504
16.5463
16.542
16.5377
16.5332
16.5288
16.5244
16.52
16.5157
16.5116
16.5075
16.5035
16.4996
16.4959
16.4923
16.4888
16.4854
16.4821
16.4789
16.4758
16.4728
16.4698
16.4669
16.464
16.4611
16.4581
16.4552
16.4522
16.4491
16.4459
16.4426
16.4392
16.4356
16.4318
16.4278
16.4236
16.4193
16.4148
16.4101
16.4054
16.4008
16.3964
16.3926
16.3899
16.3888
16.3904
16.3961
16.4081
16.4281
16.4635
16.4868
-3.67991
-3.7299
-3.78048
-3.82245
-3.86671
-3.9177
-3.97667
-4.04447
-4.12187
-4.20946
-4.30769
-4.41688
-4.53721
-4.66876
-4.81153
-4.96543
-5.13034
-5.30606
-5.49237
-5.68905
-5.89582
-6.1124
-6.33851
-6.57385
-6.81812
-7.07099
-7.33213
-7.60117
-7.87774
-8.16141
-8.45172
-8.74816
-9.05016
-9.35706
-9.66815
-9.98261
-10.2995
-10.6178
-10.9363
-11.2536
-11.5683
-11.8786
-12.1826
-12.4782
-12.763
-13.0343
-13.2892
-13.5244
-13.7362
-13.9208
-14.0739
-14.1908
-14.2664
-14.2958
-14.2738
-14.1957
-14.0541
-13.8412
-13.5521
-13.1834
-12.7328
-12.1997
-11.5849
-10.8907
-10.1211
-9.2814
-8.37848
-7.42019
-6.41532
-5.37329
-4.30385
-3.21675
-2.12152
-1.02727
0.0575145
1.12511
2.16866
3.18225
4.16092
5.1006
5.99802
6.85097
7.65794
8.41783
9.1305
9.79576
10.4151
10.9907
11.5277
12.0279
12.4886
12.9122
13.3004
13.6547
13.9777
14.2713
14.5372
14.7772
14.9932
15.187
15.3604
15.5153
15.653
15.7753
15.8835
15.979
16.0629
16.1364
16.2006
16.2564
16.3047
16.3463
16.3819
16.4123
16.4379
16.4594
16.4772
16.4918
16.5036
16.513
16.5202
16.5256
16.5294
16.5318
16.5331
16.5335
16.533
16.5318
16.5301
16.5279
16.5254
16.5226
16.5196
16.5164
16.5131
16.5098
16.5064
16.5031
16.4997
16.4964
16.4931
16.4899
16.4868
16.4837
16.4807
16.4778
16.4749
16.4721
16.4694
16.4667
16.464
16.4613
16.4587
16.456
16.4533
16.4505
16.4476
16.4447
16.4416
16.4384
16.4351
16.4315
16.4278
16.4239
16.4197
16.4154
16.4108
16.4061
16.4013
16.3965
16.3919
16.3878
16.3845
16.3825
16.3827
16.386
16.3938
16.4062
16.4284
16.4296
-3.74778
-3.80181
-3.85722
-3.90384
-3.95293
-4.00904
-4.07319
-4.14603
-4.22813
-4.31993
-4.42179
-4.53396
-4.65661
-4.78983
-4.93367
-5.08808
-5.25298
-5.42827
-5.61379
-5.80938
-6.01484
-6.22997
-6.45455
-6.68836
-6.93115
-7.18266
-7.44263
-7.71074
-7.98667
-8.27005
-8.56047
-8.85749
-9.16057
-9.46912
-9.78247
-10.0998
-10.4204
-10.743
-11.0667
-11.3901
-11.7117
-12.0299
-12.3428
-12.6484
-12.9443
-13.2278
-13.4961
-13.7459
-13.9735
-14.1749
-14.3458
-14.4814
-14.5764
-14.6253
-14.6229
-14.5637
-14.4397
-14.2421
-13.9652
-13.6052
-13.1596
-12.6277
-12.0102
-11.3098
-10.5307
-9.67886
-8.76163
-7.78751
-6.76597
-5.70703
-4.62101
-3.51812
-2.40821
-1.30058
-0.203812
0.874318
1.92694
2.94819
3.93332
4.87837
5.78001
6.63641
7.44615
8.20801
8.92289
9.5911
10.2178
10.8042
11.3484
11.8521
12.3162
12.7432
13.135
13.4935
13.8208
14.1189
14.3895
14.6346
14.8558
15.055
15.234
15.3944
15.5378
15.6656
15.7793
15.8801
15.9693
16.0479
16.1171
16.1777
16.2306
16.2766
16.3165
16.3509
16.3804
16.4055
16.4268
16.4448
16.4597
16.4719
16.4819
16.4899
16.4961
16.5008
16.5042
16.5065
16.5079
16.5084
16.5083
16.5077
16.5065
16.505
16.5032
16.5011
16.4989
16.4965
16.494
16.4914
16.4888
16.4862
16.4836
16.481
16.4784
16.4758
16.4733
16.4708
16.4683
16.4659
16.4635
16.461
16.4586
16.4562
16.4538
16.4513
16.4488
16.4462
16.4435
16.4407
16.4377
16.4346
16.4313
16.4279
16.4242
16.4203
16.4162
16.4118
16.4072
16.4024
16.3975
16.3925
16.3875
16.3829
16.3788
16.3756
16.374
16.3744
16.3776
16.3824
16.3925
16.3757
-3.85139
-3.90529
-3.96169
-4.01017
-4.06133
-4.11971
-4.18628
-4.26164
-4.34625
-4.44047
-4.54454
-4.65864
-4.78289
-4.91735
-5.06204
-5.21693
-5.38197
-5.55709
-5.74217
-5.9371
-6.14175
-6.35597
-6.57962
-6.81251
-7.05448
-7.30532
-7.56482
-7.83272
-8.10877
-8.39265
-8.684
-8.98242
-9.28744
-9.59851
-9.91501
-10.2362
-10.5613
-10.8892
-11.219
-11.5493
-11.8788
-12.2058
-12.5286
-12.845
-13.1528
-13.4494
-13.7319
-13.997
-14.241
-14.46
-14.6493
-14.8041
-14.9187
-14.9874
-15.0044
-14.9638
-14.8564
-14.6723
-14.4051
-14.0505
-13.6058
-13.07
-12.444
-11.7308
-10.9353
-10.0641
-9.12536
-8.12838
-7.08345
-6.00143
-4.8933
-3.76977
-2.64109
-1.51674
-0.405367
0.68523
1.74807
2.77739
3.76893
4.7187
5.62301
6.48155
7.29333
8.0574
8.77815
9.45447
10.0858
10.6733
11.218
11.7219
12.1868
12.6149
13.0081
13.3684
13.6978
13.9982
14.2715
14.5196
14.7441
14.9469
15.1296
15.2939
15.4412
15.5731
15.6909
15.7958
15.889
15.9716
16.0447
16.1091
16.1658
16.2154
16.2587
16.2965
16.3292
16.3574
16.3817
16.4024
16.4199
16.4347
16.447
16.4572
16.4656
16.4723
16.4776
16.4816
16.4846
16.4867
16.4881
16.4887
16.4889
16.4885
16.4878
16.4867
16.4854
16.4839
16.4822
16.4804
16.4785
16.4766
16.4745
16.4725
16.4704
16.4683
16.4662
16.4641
16.462
16.4599
16.4578
16.4557
16.4535
16.4513
16.4491
16.4469
16.4445
16.4421
16.4395
16.4369
16.434
16.431
16.4279
16.4245
16.4209
16.417
16.4129
16.4085
16.4038
16.3989
16.3938
16.3885
16.3831
16.3778
16.3728
16.3683
16.3646
16.3619
16.3603
16.3578
16.3574
16.3258
-3.97523
-4.02546
-4.07964
-4.12769
-4.17872
-4.23713
-4.30397
-4.37983
-4.46516
-4.56024
-4.66523
-4.78023
-4.90527
-5.04038
-5.18553
-5.34068
-5.50579
-5.68078
-5.86559
-6.06013
-6.26432
-6.47806
-6.70125
-6.93377
-7.17549
-7.42627
-7.68595
-7.95435
-8.23123
-8.51635
-8.80939
-9.11
-9.41774
-9.73212
-10.0526
-10.3784
-10.7087
-11.0427
-11.3794
-11.7174
-12.0554
-12.3919
-12.7251
-13.0529
-13.3731
-13.6832
-13.9802
-14.2609
-14.5216
-14.7583
-14.9663
-15.1404
-15.2748
-15.3633
-15.3997
-15.3773
-15.2856
-15.1135
-14.8539
-14.5021
-14.055
-13.5115
-12.8726
-12.142
-11.3251
-10.4295
-9.4644
-8.44002
-7.36752
-6.25866
-5.12515
-3.97827
-2.82879
-1.68625
-0.55922
0.544311
1.61696
2.6536
3.65128
4.6055
5.51216
6.37555
7.19451
7.96413
8.68699
9.36321
9.99359
10.5797
11.1232
11.626
12.09
12.5175
12.9103
13.2706
13.6004
13.9015
14.176
14.4254
14.6518
14.8567
15.0417
15.2085
15.3586
15.4934
15.6141
15.7221
15.8184
15.9041
15.9803
16.0478
16.1074
16.16
16.2063
16.2468
16.2823
16.3131
16.3399
16.363
16.3829
16.3999
16.4143
16.4265
16.4368
16.4453
16.4522
16.4579
16.4624
16.4659
16.4686
16.4705
16.4718
16.4725
16.4728
16.4727
16.4723
16.4716
16.4707
16.4697
16.4684
16.4671
16.4656
16.4641
16.4625
16.4609
16.4592
16.4575
16.4558
16.454
16.4522
16.4504
16.4485
16.4466
16.4446
16.4425
16.4403
16.4381
16.4357
16.4332
16.4305
16.4276
16.4245
16.4212
16.4177
16.4139
16.4097
16.4053
16.4006
16.3955
16.3902
16.3845
16.3787
16.3727
16.3666
16.3606
16.3547
16.3487
16.3424
16.3332
16.3237
16.28
-4.10315
-4.14685
-4.19607
-4.24177
-4.29102
-4.34794
-4.41367
-4.4888
-4.57372
-4.66863
-4.77362
-4.88871
-5.01386
-5.14904
-5.29421
-5.44931
-5.61429
-5.78908
-5.97365
-6.16793
-6.37186
-6.5854
-6.80848
-7.04102
-7.28296
-7.53419
-7.7946
-8.06405
-8.34238
-8.62935
-8.92471
-9.22813
-9.53924
-9.85756
-10.1825
-10.5135
-10.8498
-11.1904
-11.5344
-11.8805
-12.2274
-12.5736
-12.9174
-13.2567
-13.5893
-13.9127
-14.2241
-14.5202
-14.7973
-15.0513
-15.2775
-15.4705
-15.6241
-15.732
-15.7873
-15.7825
-15.7052
-15.5431
-15.2892
-14.9379
-14.4857
-13.9315
-13.2767
-12.5255
-11.6843
-10.7617
-9.76794
-8.71432
-7.61256
-6.47561
-5.3161
-4.14604
-2.97675
-1.81685
-0.674538
0.441197
1.52233
2.56593
3.5718
4.53413
5.44799
6.31499
7.13394
7.90351
8.625
9.29926
9.92756
10.5115
11.0528
11.5536
12.0157
12.4414
12.8328
13.1919
13.5208
13.8215
14.0958
14.3457
14.5727
14.7786
14.965
15.1335
15.2854
15.4222
15.5451
15.6554
15.7541
15.8423
15.9209
15.9909
16.0531
16.1083
16.157
16.2
16.2378
16.271
16.3
16.3253
16.3473
16.3663
16.3826
16.3967
16.4087
16.4189
16.4274
16.4346
16.4405
16.4454
16.4493
16.4524
16.4548
16.4566
16.4579
16.4588
16.4592
16.4593
16.4592
16.4588
16.4582
16.4575
16.4566
16.4557
16.4546
16.4534
16.4522
16.4509
16.4495
16.4481
16.4466
16.445
16.4434
16.4418
16.44
16.4382
16.4362
16.4341
16.4319
16.4296
16.427
16.4243
16.4213
16.4181
16.4146
16.4108
16.4067
16.4023
16.3975
16.3923
16.3867
16.3807
16.3743
16.3675
16.3603
16.3527
16.3445
16.3353
16.3245
16.3091
16.2919
16.2382
-4.22001
-4.2551
-4.29709
-4.33892
-4.3854
-4.44014
-4.50423
-4.57815
-4.66216
-4.75637
-4.86079
-4.97539
-5.10011
-5.23488
-5.37964
-5.53435
-5.69894
-5.87338
-6.05762
-6.25165
-6.45542
-6.66892
-6.89212
-7.12499
-7.36747
-7.61953
-7.88109
-8.15204
-8.43226
-8.72155
-9.0197
-9.32641
-9.64133
-9.96401
-10.2939
-10.6305
-10.9729
-11.3203
-11.6717
-12.0259
-12.3817
-12.7374
-13.0914
-13.4418
-13.7863
-14.1224
-14.4473
-14.7579
-15.0503
-15.3204
-15.5635
-15.7739
-15.9455
-16.0714
-16.1444
-16.1557
-16.0903
-15.9354
-15.6845
-15.3312
-14.8712
-14.3038
-13.631
-12.8576
-11.9911
-11.0413
-10.0197
-8.93809
-7.8082
-6.64486
-5.46196
-4.27203
-3.08676
-1.91236
-0.755361
0.373098
1.46538
2.51798
3.52852
4.49314
5.40917
6.2762
7.09366
7.86155
8.58075
9.25234
9.8778
10.4588
10.9973
11.4953
11.9549
12.3783
12.7675
13.1248
13.4522
13.7517
14.0253
14.2747
14.5018
14.7081
14.8952
15.0646
15.2178
15.356
15.4806
15.5927
15.6933
15.7836
15.8644
15.9366
16.001
16.0583
16.1092
16.1544
16.1944
16.2297
16.2608
16.2881
16.312
16.3329
16.3511
16.3669
16.3806
16.3924
16.4025
16.4111
16.4184
16.4246
16.4298
16.4341
16.4376
16.4404
16.4427
16.4445
16.4458
16.4467
16.4474
16.4477
16.4478
16.4477
16.4474
16.447
16.4464
16.4457
16.4449
16.444
16.443
16.442
16.4408
16.4396
16.4383
16.4368
16.4353
16.4337
16.432
16.4301
16.4281
16.4259
16.4236
16.421
16.4181
16.415
16.4116
16.4079
16.4038
16.3993
16.3944
16.3891
16.3832
16.3768
16.3698
16.3622
16.3539
16.3446
16.3342
16.3218
16.3069
16.2859
16.262
16.2002
-4.31306
-4.33819
-4.37123
-4.40828
-4.4519
-4.50461
-4.56718
-4.63988
-4.72282
-4.81604
-4.91951
-5.03319
-5.15703
-5.29097
-5.43495
-5.58894
-5.75289
-5.92678
-6.1106
-6.30433
-6.50797
-6.72152
-6.94499
-7.17837
-7.42165
-7.67482
-7.93782
-8.21059
-8.49303
-8.78498
-9.08623
-9.39652
-9.71551
-10.0428
-10.3778
-10.7199
-11.0684
-11.4225
-11.7811
-12.143
-12.5071
-12.8717
-13.2351
-13.5955
-13.9507
-14.2981
-14.635
-14.9581
-15.2639
-15.5481
-15.8059
-16.0315
-16.2186
-16.36
-16.4486
-16.4723
-16.414
-16.262
-16.0101
-15.6508
-15.1796
-14.5966
-13.9046
-13.1093
-12.2192
-11.2453
-10.2005
-9.09748
-7.94625
-6.76116
-5.55885
-4.35147
-3.14987
-1.9627
-0.797451
0.33751
1.43565
2.49245
3.50456
4.4692
5.38453
6.24983
7.06479
7.82979
8.54574
9.2139
9.83586
10.4134
10.9486
11.4434
11.9001
12.3208
12.7077
13.063
13.3887
13.6868
13.9593
14.208
14.4347
14.6411
14.8285
14.9986
15.1527
15.2921
15.4181
15.5317
15.634
15.7261
15.8088
15.8829
15.9493
16.0087
16.0617
16.109
16.151
16.1883
16.2214
16.2507
16.2765
16.2992
16.3192
16.3367
16.352
16.3654
16.377
16.3871
16.3958
16.4033
16.4097
16.4152
16.4198
16.4237
16.427
16.4297
16.4319
16.4337
16.4351
16.4361
16.4369
16.4375
16.4378
16.4379
16.4379
16.4377
16.4374
16.4369
16.4363
16.4356
16.4348
16.4339
16.4329
16.4318
16.4306
16.4292
16.4277
16.4261
16.4243
16.4223
16.4201
16.4177
16.415
16.412
16.4087
16.405
16.401
16.3965
16.3915
16.386
16.3798
16.373
16.3655
16.357
16.3475
16.3366
16.3239
16.3086
16.2898
16.2639
16.2341
16.1656
-4.37275
-4.38719
-4.41036
-4.44249
-4.48388
-4.53515
-4.5965
-4.66803
-4.74978
-4.84178
-4.94402
-5.05648
-5.17913
-5.31194
-5.45489
-5.60794
-5.77108
-5.94431
-6.12763
-6.32106
-6.5246
-6.73829
-6.96215
-7.19621
-7.44048
-7.69495
-7.95963
-8.23445
-8.51932
-8.81412
-9.11864
-9.43262
-9.75571
-10.0875
-10.4275
-10.7749
-11.1292
-11.4894
-11.8545
-12.2233
-12.5946
-12.9668
-13.3381
-13.7068
-14.0706
-14.4271
-14.7734
-15.1065
-15.4226
-15.7175
-15.9864
-16.2234
-16.4219
-16.5751
-16.675
-16.704
-16.645
-16.4905
-16.234
-15.8677
-15.3862
-14.7889
-14.0797
-13.2653
-12.355
-11.3605
-10.2952
-9.17304
-8.00693
-6.80963
-5.59594
-4.37844
-3.16819
-1.97472
-0.806188
0.330215
1.4286
2.4845
3.49457
4.45632
5.36822
6.22963
7.04046
7.80121
8.51289
9.17685
9.79474
10.3685
10.9
11.3916
11.8453
12.2633
12.6479
13.0012
13.3253
13.6221
13.8936
14.1417
14.368
14.5743
14.7621
14.9328
15.0877
15.2282
15.3554
15.4704
15.5744
15.6682
15.7527
15.8287
15.8971
15.9584
16.0135
16.0627
16.1068
16.1461
16.1811
16.2123
16.24
16.2646
16.2863
16.3056
16.3226
16.3375
16.3507
16.3622
16.3723
16.3811
16.3888
16.3955
16.4013
16.4063
16.4106
16.4142
16.4174
16.42
16.4222
16.4241
16.4256
16.4268
16.4278
16.4285
16.429
16.4293
16.4295
16.4295
16.4293
16.429
16.4286
16.4281
16.4274
16.4266
16.4256
16.4245
16.4233
16.4219
16.4203
16.4186
16.4166
16.4143
16.4118
16.409
16.4058
16.4022
16.3982
16.3937
16.3887
16.383
16.3766
16.3694
16.3612
16.3519
16.3412
16.3287
16.3139
16.2958
16.2734
16.2431
16.2083
16.1342
-4.3922
-4.39658
-4.41043
-4.43791
-4.47736
-4.52733
-4.58747
-4.65777
-4.73825
-4.82893
-4.92982
-5.04094
-5.16228
-5.29386
-5.43566
-5.5877
-5.74998
-5.92252
-6.10534
-6.2985
-6.50201
-6.71594
-6.94034
-7.17524
-7.42069
-7.6767
-7.94328
-8.22039
-8.50794
-8.8058
-9.11375
-9.43154
-9.75879
-10.0951
-10.4398
-10.7923
-11.1519
-11.5176
-11.8883
-12.263
-12.6402
-13.0184
-13.396
-13.7709
-14.1411
-14.5041
-14.8572
-15.197
-15.5202
-15.8224
-16.0986
-16.3431
-16.5492
-16.7107
-16.8176
-16.8446
-16.7772
-16.614
-16.3465
-15.9674
-15.4722
-14.8597
-14.1342
-13.3032
-12.3769
-11.3677
-10.2891
-9.15551
-7.98095
-6.77896
-5.56295
-4.34507
-3.13614
-1.94552
-0.781232
0.349931
1.44243
2.492
3.49547
4.45056
5.3559
6.21092
7.01562
7.77059
8.47685
9.1358
9.74912
10.3187
10.8465
11.3348
11.7856
12.2012
12.5838
12.9354
13.2581
13.5539
13.8248
14.0725
14.2987
14.5052
14.6934
14.8648
15.0207
15.1623
15.2909
15.4074
15.513
15.6086
15.6949
15.7729
15.8433
15.9066
15.9637
16.015
16.0611
16.1024
16.1394
16.1726
16.2022
16.2286
16.2522
16.2732
16.2919
16.3085
16.3232
16.3363
16.3478
16.358
16.367
16.375
16.3819
16.388
16.3934
16.3981
16.4022
16.4057
16.4088
16.4114
16.4137
16.4156
16.4172
16.4186
16.4197
16.4206
16.4213
16.4217
16.422
16.4222
16.4221
16.4219
16.4216
16.4211
16.4205
16.4197
16.4188
16.4177
16.4164
16.4148
16.4131
16.411
16.4087
16.406
16.403
16.3995
16.3956
16.3911
16.3859
16.3801
16.3735
16.3658
16.3571
16.347
16.3352
16.3212
16.3044
16.2837
16.258
16.2238
16.1845
16.106
-4.36849
-4.36469
-4.37106
-4.39425
-4.43122
-4.47932
-4.53786
-4.60669
-4.68574
-4.77499
-4.87445
-4.98417
-5.10415
-5.23445
-5.37509
-5.5261
-5.68752
-5.85939
-6.04178
-6.23474
-6.43834
-6.65265
-6.87774
-7.1137
-7.36057
-7.6184
-7.88717
-8.16687
-8.45739
-8.75858
-9.07023
-9.39202
-9.72355
-10.0643
-10.4138
-10.7711
-11.1356
-11.5062
-11.8818
-12.2613
-12.6432
-13.026
-13.408
-13.7873
-14.1616
-14.5287
-14.8857
-15.2294
-15.5564
-15.8623
-16.1422
-16.39
-16.5999
-16.7653
-16.8687
-16.8838
-16.8011
-16.6208
-16.3342
-15.9346
-15.4187
-14.7874
-14.0453
-13.2007
-12.264
-11.2479
-10.166
-9.03244
-7.86101
-6.66513
-5.45748
-4.2497
-3.0521
-1.87364
-0.721986
0.396428
1.47637
2.5138
3.50568
4.44989
5.34516
6.19093
6.98724
7.73467
8.43422
9.08724
9.69538
10.2605
10.7845
11.2695
11.7176
12.1311
12.5119
12.8622
13.1841
13.4794
13.75
13.9978
14.2244
14.4314
14.6204
14.7928
14.9499
15.093
15.2231
15.3414
15.4488
15.5462
15.6346
15.7147
15.7871
15.8526
15.9118
15.9652
16.0134
16.0569
16.096
16.1311
16.1628
16.1911
16.2166
16.2394
16.2599
16.2782
16.2945
16.3091
16.3222
16.3338
16.3442
16.3534
16.3616
16.3689
16.3754
16.3811
16.3862
16.3907
16.3947
16.3982
16.4012
16.4039
16.4062
16.4082
16.41
16.4114
16.4126
16.4136
16.4144
16.415
16.4154
16.4156
16.4156
16.4155
16.4152
16.4148
16.4142
16.4134
16.4124
16.4111
16.4095
16.4077
16.4056
16.4031
16.4002
16.3968
16.393
16.3885
16.3834
16.3774
16.3705
16.3626
16.3533
16.3424
16.3295
16.314
16.2953
16.2723
16.2436
16.206
16.1628
16.0806
-4.30499
-4.29499
-4.29587
-4.31529
-4.34928
-4.39486
-4.45123
-4.51811
-4.59533
-4.68283
-4.78061
-4.88872
-5.0072
-5.13611
-5.27551
-5.42547
-5.58604
-5.7573
-5.93932
-6.1322
-6.33602
-6.55088
-6.77689
-7.01414
-7.26269
-7.5226
-7.79387
-8.07645
-8.37023
-8.67503
-8.99059
-9.31653
-9.65239
-9.99762
-10.3515
-10.7133
-11.0821
-11.4568
-11.8364
-12.2195
-12.6046
-12.9903
-13.3747
-13.7561
-14.1321
-14.5004
-14.8583
-15.2027
-15.5299
-15.8356
-16.1147
-16.3619
-16.572
-16.7334
-16.8156
-16.8019
-16.6952
-16.4893
-16.1763
-15.7511
-15.2123
-14.5622
-13.8064
-12.9534
-12.0138
-11.0001
-9.92527
-8.80283
-7.64601
-6.4675
-5.27921
-4.09206
-2.91572
-1.75864
-0.628047
0.47002
1.53063
2.54995
3.52508
4.454
5.33546
6.16889
6.95431
7.69221
8.38353
9.02952
9.63171
10.1918
10.7118
11.1936
11.6392
12.0507
12.4302
12.7797
13.1011
13.3964
13.6673
13.9157
14.1431
14.3512
14.5415
14.7153
14.874
15.0188
15.1509
15.2711
15.3807
15.4803
15.5709
15.6532
15.7279
15.7957
15.8572
15.913
15.9634
16.0091
16.0504
16.0877
16.1214
16.1518
16.1793
16.204
16.2263
16.2464
16.2644
16.2807
16.2953
16.3085
16.3203
16.3309
16.3404
16.3489
16.3565
16.3634
16.3695
16.375
16.3799
16.3843
16.3882
16.3916
16.3947
16.3974
16.3998
16.4019
16.4037
16.4052
16.4065
16.4075
16.4083
16.409
16.4095
16.4098
16.4099
16.4099
16.4096
16.4091
16.4083
16.4073
16.406
16.4045
16.4025
16.4002
16.3975
16.3943
16.3905
16.3861
16.381
16.3749
16.3679
16.3595
16.3497
16.3381
16.3242
16.3075
16.287
16.2618
16.2305
16.1898
16.1432
16.0581
-4.20965
-4.19526
-4.19227
-4.20842
-4.23921
-4.28175
-4.33531
-4.39959
-4.47435
-4.55952
-4.65511
-4.76118
-4.87779
-5.00504
-5.14299
-5.29174
-5.45138
-5.62198
-5.80365
-5.9965
-6.20065
-6.41622
-6.64333
-6.88209
-7.13259
-7.39487
-7.66893
-7.9547
-8.25203
-8.56068
-8.8803
-9.21047
-9.55062
-9.90008
-10.2581
-10.6237
-10.996
-11.3738
-11.7558
-12.1409
-12.5274
-12.9138
-13.2984
-13.6792
-14.054
-14.4205
-14.7759
-15.117
-15.4402
-15.741
-16.0149
-16.2575
-16.4596
-16.5939
-16.6371
-16.5881
-16.4472
-16.2069
-15.8614
-15.4079
-14.8465
-14.1807
-13.4166
-12.5626
-11.6291
-10.6277
-9.57059
-8.47037
-7.33923
-6.18894
-5.03046
-3.87386
-2.72811
-1.60106
-0.499445
0.571082
1.6059
2.60134
3.55466
4.46387
5.32773
6.14561
6.91745
7.64365
8.32498
8.96259
9.55784
10.1123
10.6278
11.1061
11.5492
11.9589
12.3373
12.6863
13.0077
13.3035
13.5752
13.8246
14.0534
14.2631
14.4551
14.6309
14.7917
14.9388
15.0731
15.1958
15.3078
15.4099
15.503
15.5878
15.6651
15.7355
15.7995
15.8577
15.9106
15.9586
16.0023
16.0419
16.0778
16.1104
16.14
16.1667
16.191
16.213
16.2328
16.2508
16.2671
16.2818
16.2952
16.3072
16.3181
16.3279
16.3368
16.3448
16.352
16.3586
16.3644
16.3698
16.3745
16.3788
16.3827
16.3862
16.3892
16.392
16.3943
16.3964
16.3982
16.3998
16.4011
16.4023
16.4033
16.404
16.4045
16.4048
16.4049
16.4047
16.4043
16.4036
16.4026
16.4012
16.3996
16.3975
16.395
16.3919
16.3883
16.3839
16.3788
16.3727
16.3655
16.3569
16.3466
16.3343
16.3195
16.3015
16.2795
16.2523
16.2187
16.1753
16.1258
16.0385
-4.0931
-4.07548
-4.06925
-4.0819
-4.10882
-4.14744
-4.19722
-4.25789
-4.32925
-4.41125
-4.50393
-4.60735
-4.72162
-4.84682
-4.98306
-5.13042
-5.28901
-5.45892
-5.64026
-5.83317
-6.03779
-6.25426
-6.48272
-6.72331
-6.97612
-7.24119
-7.51849
-7.80791
-8.10923
-8.42212
-8.74615
-9.08074
-9.4252
-9.77873
-10.1404
-10.5092
-10.884
-11.2636
-11.6467
-12.0319
-12.4178
-12.8026
-13.1846