/*--------------------------------*- C++ -*----------------------------------*\
| =========                 |                                                 |
| \\      /  F ield         | OpenFOAM: The Open Source CFD Toolbox           |
|  \\    /   O peration     | Version:  1.4.2                                 |
|   \\  /    A nd           | Web:      http://www.openfoam.org               |
|    \\/     M anipulation  |                                                 |
\*---------------------------------------------------------------------------*/
FoamFile
{
    version     2.0;
    format      ascii;
    class       surfaceScalarField;
    object      phi;
    location    "250";
}
// * * * * * * * * * * * * * * * * * * * * * * * * * * * * * * * * * * * * * //

dimensions      [0 3 -1 0 0 0 0];

internalField   nonuniform List<scalar> 
24170
(
3.03913e-06
9.47641e-08
2.96642e-06
7.27109e-08
2.90162e-06
6.4803e-08
2.84013e-06
6.14816e-08
2.78205e-06
5.80881e-08
2.72758e-06
5.44677e-08
2.67664e-06
5.09325e-08
2.62908e-06
4.75633e-08
2.58472e-06
4.43555e-08
2.54341e-06
4.13051e-08
2.505e-06
3.84117e-08
2.46933e-06
3.56719e-08
2.43625e-06
3.30761e-08
2.40565e-06
3.06022e-08
2.37745e-06
2.82027e-08
2.35168e-06
2.57635e-08
2.32859e-06
2.30989e-08
1.51981e-08
2.31339e-06
3.46193e-06
8.92754e-08
3.45367e-06
8.09699e-08
3.44403e-06
7.44488e-08
3.43312e-06
7.23838e-08
3.42122e-06
6.99939e-08
3.40869e-06
6.69867e-08
3.39578e-06
6.38488e-08
3.38259e-06
6.07453e-08
3.36925e-06
5.76945e-08
3.35585e-06
5.47068e-08
3.34246e-06
5.17944e-08
3.32917e-06
4.89609e-08
3.31605e-06
4.6195e-08
3.30319e-06
4.34614e-08
3.29072e-06
4.06745e-08
3.27886e-06
3.76245e-08
3.26823e-06
3.37314e-08
2.68035e-08
3.25663e-06
3.82426e-06
7.72104e-08
3.8261e-06
7.91334e-08
3.82519e-06
7.5358e-08
3.82335e-06
7.42193e-08
3.82081e-06
7.2533e-08
3.81773e-06
7.00623e-08
3.81426e-06
6.73193e-08
3.81048e-06
6.45232e-08
3.80645e-06
6.17243e-08
3.80221e-06
5.89481e-08
3.79779e-06
5.62142e-08
3.79322e-06
5.35279e-08
3.78854e-06
5.08752e-08
3.78379e-06
4.82137e-08
3.77901e-06
4.54496e-08
3.77425e-06
4.23864e-08
3.76934e-06
3.86433e-08
3.33969e-08
3.76275e-06
4.21682e-06
6.49514e-08
4.22188e-06
7.40665e-08
4.22383e-06
7.34102e-08
4.22478e-06
7.32702e-08
4.2251e-06
7.22096e-08
4.22493e-06
7.02339e-08
4.22439e-06
6.78579e-08
4.22358e-06
6.53367e-08
4.22254e-06
6.27565e-08
4.22133e-06
6.0162e-08
4.21996e-06
5.75824e-08
4.21846e-06
5.50284e-08
4.21684e-06
5.24896e-08
4.21513e-06
4.99293e-08
4.21331e-06
4.72725e-08
4.21131e-06
4.4388e-08
4.20884e-06
4.11088e-08
3.72509e-08
4.20499e-06
4.64861e-06
5.36514e-08
4.65518e-06
6.74936e-08
4.65879e-06
6.97982e-08
4.66125e-06
7.08126e-08
4.66302e-06
7.04372e-08
4.66427e-06
6.89795e-08
4.66514e-06
6.6993e-08
4.66571e-06
6.47677e-08
4.66604e-06
6.24237e-08
4.66617e-06
6.00264e-08
4.66614e-06
5.76166e-08
4.66595e-06
5.52132e-08
4.66563e-06
5.28143e-08
4.66516e-06
5.03968e-08
4.66452e-06
4.79163e-08
4.6636e-06
4.53114e-08
4.66215e-06
4.25597e-08
3.97391e-08
4.65966e-06
5.12446e-06
4.37884e-08
5.13171e-06
6.02439e-08
5.1365e-06
6.5007e-08
5.14012e-06
6.71864e-08
5.14297e-06
6.75873e-08
5.14523e-06
6.67224e-08
5.14704e-06
6.51804e-08
5.14852e-06
6.32928e-08
5.14972e-06
6.12199e-08
5.15069e-06
5.90523e-08
5.15146e-06
5.68451e-08
5.15205e-06
5.46278e-08
5.15245e-06
5.24095e-08
5.15267e-06
5.01845e-08
5.15265e-06
4.7939e-08
5.15229e-06
4.56668e-08
5.15143e-06
4.34219e-08
4.13541e-08
5.14982e-06
5.64928e-06
3.5513e-08
5.65666e-06
5.28709e-08
5.66222e-06
5.94467e-08
5.66675e-06
6.26513e-08
5.67052e-06
6.38232e-08
5.67365e-06
6.35903e-08
5.67628e-06
6.25492e-08
5.67851e-06
6.10588e-08
5.68042e-06
5.93113e-08
5.68205e-06
5.74205e-08
5.68344e-06
5.54581e-08
5.6846e-06
5.34673e-08
5.68554e-06
5.14719e-08
5.68624e-06
4.94844e-08
5.68666e-06
4.75169e-08
5.68673e-06
4.55979e-08
5.68634e-06
4.38087e-08
4.22895e-08
5.68541e-06
4.41113e-06
3.04997e-08
4.41627e-06
4.77236e-08
4.42056e-06
5.5163e-08
4.4242e-06
5.90109e-08
4.42733e-06
6.06848e-08
4.43004e-06
6.08867e-08
4.43237e-06
6.02128e-08
4.4344e-06
5.90283e-08
4.43617e-06
5.75406e-08
4.43772e-06
5.5877e-08
4.43906e-06
5.41195e-08
4.4402e-06
5.23204e-08
4.44116e-06
5.05134e-08
4.44192e-06
4.87227e-08
4.44247e-06
4.69741e-08
4.44276e-06
4.53095e-08
4.44275e-06
4.38137e-08
4.25952e-08
4.44245e-06
5.14451e-06
2.58484e-08
5.14981e-06
4.24218e-08
5.15454e-06
5.04305e-08
5.15875e-06
5.48008e-08
5.16249e-06
5.69443e-08
5.1658e-06
5.75819e-08
5.16872e-06
5.72933e-08
5.1713e-06
5.64437e-08
5.17359e-06
5.52504e-08
5.17562e-06
5.38512e-08
5.1774e-06
5.23372e-08
5.17895e-06
5.07692e-08
5.18028e-06
4.919e-08
5.18137e-06
4.7634e-08
5.1822e-06
4.6137e-08
5.18277e-06
4.47471e-08
5.18304e-06
4.35389e-08
4.25887e-08
5.18305e-06
6.00001e-06
2.16362e-08
6.00533e-06
3.70986e-08
6.0104e-06
4.53573e-08
6.01512e-06
5.00847e-08
6.01944e-06
5.26236e-08
6.02335e-06
5.36683e-08
6.02689e-06
5.37616e-08
6.03007e-06
5.326e-08
6.03294e-06
5.23844e-08
6.03551e-06
5.12789e-08
6.0378e-06
5.00411e-08
6.03983e-06
4.87391e-08
6.0416e-06
4.74228e-08
6.0431e-06
4.6134e-08
6.04433e-06
4.49142e-08
6.04526e-06
4.38113e-08
6.04592e-06
4.28838e-08
4.21766e-08
6.04633e-06
6.998e-06
1.78991e-08
7.00322e-06
3.18798e-08
7.00853e-06
4.00531e-08
7.01366e-06
4.49501e-08
7.01851e-06
4.77751e-08
7.02301e-06
4.91671e-08
7.02716e-06
4.96152e-08
7.03097e-06
4.94557e-08
7.03445e-06
4.89059e-08
7.03761e-06
4.81114e-08
7.04048e-06
4.71728e-08
7.04306e-06
4.61626e-08
7.04535e-06
4.51351e-08
7.04735e-06
4.41358e-08
7.04905e-06
4.32069e-08
7.05048e-06
4.23911e-08
7.05163e-06
4.173e-08
4.1243e-08
7.05257e-06
8.16229e-06
1.46215e-08
8.16731e-06
2.68646e-08
8.17274e-06
3.46224e-08
8.1782e-06
3.94886e-08
8.18351e-06
4.24656e-08
8.18856e-06
4.41186e-08
8.19331e-06
4.48712e-08
8.19774e-06
4.50283e-08
8.20185e-06
4.47958e-08
8.20565e-06
4.43148e-08
8.20913e-06
4.36851e-08
8.21232e-06
4.29794e-08
8.2152e-06
4.22535e-08
8.21779e-06
4.1552e-08
8.22008e-06
4.09142e-08
8.2221e-06
4.03746e-08
8.22387e-06
3.99594e-08
3.96701e-08
8.22544e-06
9.5206e-06
1.17454e-08
9.52536e-06
2.21072e-08
9.53084e-06
2.91471e-08
9.53655e-06
3.37745e-08
9.54227e-06
3.67543e-08
9.54783e-06
3.85616e-08
9.55315e-06
3.95488e-08
9.5582e-06
3.99795e-08
9.56296e-06
4.00393e-08
9.56742e-06
3.98592e-08
9.57157e-06
3.9533e-08
9.57542e-06
3.91301e-08
9.57897e-06
3.87032e-08
9.58223e-06
3.82935e-08
9.58521e-06
3.7934e-08
9.58794e-06
3.76505e-08
9.59044e-06
3.74573e-08
3.73449e-08
9.59276e-06
1.11053e-05
9.18552e-09
1.11098e-05
1.76041e-08
1.11153e-05
2.36681e-08
1.11212e-05
2.78465e-08
1.11273e-05
3.06696e-08
1.11333e-05
3.25098e-08
1.11392e-05
3.36457e-08
1.11449e-05
3.42912e-08
1.11504e-05
3.46039e-08
1.11555e-05
3.46978e-08
1.11604e-05
3.4656e-08
1.1165e-05
3.45402e-08
1.11693e-05
3.43965e-08
1.11733e-05
3.42598e-08
1.11771e-05
3.41561e-08
1.11807e-05
3.41029e-08
1.1184e-05
3.41067e-08
3.41526e-08
1.11872e-05
1.2954e-05
6.8403e-09
1.29583e-05
1.32891e-08
1.29638e-05
1.81647e-08
1.297e-05
2.16875e-08
1.29764e-05
2.41876e-08
1.2983e-05
2.59285e-08
1.29896e-05
2.71131e-08
1.29959e-05
2.79011e-08
1.30021e-05
2.84142e-08
1.30081e-05
2.8743e-08
1.30138e-05
2.89545e-08
1.30192e-05
2.90986e-08
1.30244e-05
2.92119e-08
1.30294e-05
2.93214e-08
1.30341e-05
2.94454e-08
1.30386e-05
2.95949e-08
1.30429e-05
2.97717e-08
2.99598e-08
1.30471e-05
1.51107e-05
4.59241e-09
1.5115e-05
9.02572e-09
1.51206e-05
1.25289e-08
1.51271e-05
1.51971e-08
1.51341e-05
1.72046e-08
1.51413e-05
1.87076e-08
1.51486e-05
1.98318e-08
1.51558e-05
2.0679e-08
1.51629e-05
2.13292e-08
1.51698e-05
2.18436e-08
1.51765e-05
2.22681e-08
1.51829e-05
2.2637e-08
1.51892e-05
2.29753e-08
1.51952e-05
2.33003e-08
1.5201e-05
2.36233e-08
1.52067e-05
2.39498e-08
1.52122e-05
2.4279e-08
2.45962e-08
1.52175e-05
1.76267e-05
2.29374e-09
1.76312e-05
4.58173e-09
1.76372e-05
6.52108e-09
1.76443e-05
8.14073e-09
1.7652e-05
9.49009e-09
1.76601e-05
1.06196e-08
1.76683e-05
1.15751e-08
1.76766e-05
1.23967e-08
1.76848e-05
1.31176e-08
1.76929e-05
1.37648e-08
1.77008e-05
1.43592e-08
1.77085e-05
1.49165e-08
1.7716e-05
1.5448e-08
1.77234e-05
1.59609e-08
1.77305e-05
1.64592e-08
1.77375e-05
1.69438e-08
1.77444e-05
1.7412e-08
1.78513e-08
1.77512e-05
1.78284e-05
4.42749e-11
1.78328e-05
2.07551e-10
1.78388e-05
5.75508e-10
1.78458e-05
1.12018e-09
1.78535e-05
1.77374e-09
1.78616e-05
2.4855e-09
1.787e-05
3.22456e-09
1.78784e-05
3.9716e-09
1.78868e-05
4.71479e-09
1.78951e-05
5.44758e-09
1.79033e-05
6.16659e-09
1.79114e-05
6.86986e-09
1.79193e-05
7.55574e-09
1.7927e-05
8.22233e-09
1.79346e-05
8.86732e-09
1.7942e-05
9.48766e-09
1.79494e-05
1.00793e-08
1.06315e-08
1.79566e-05
1.58835e-05
-2.11752e-09
1.58877e-05
-3.94785e-09
1.58932e-05
-4.99631e-09
1.58997e-05
-5.38896e-09
1.59068e-05
-5.33156e-09
1.59143e-05
-4.97391e-09
1.59219e-05
-4.41674e-09
1.59296e-05
-3.73238e-09
1.59373e-05
-2.97183e-09
1.59449e-05
-2.16959e-09
1.59525e-05
-1.34891e-09
1.59598e-05
-5.25936e-10
1.59671e-05
2.87734e-10
1.59743e-05
1.08336e-09
1.59813e-05
1.85395e-09
1.59882e-05
2.59343e-09
1.59949e-05
3.29645e-09
3.95357e-09
1.60016e-05
1.41509e-05
-4.38375e-09
1.41552e-05
-8.17934e-09
1.41607e-05
-1.0494e-08
1.41669e-05
-1.16596e-08
1.41737e-05
-1.20664e-08
1.41806e-05
-1.19646e-08
1.41878e-05
-1.152e-08
1.41949e-05
-1.08536e-08
1.42019e-05
-1.00501e-08
1.42089e-05
-9.16637e-09
1.42158e-05
-8.2409e-09
1.42226e-05
-7.30028e-09
1.42293e-05
-6.36332e-09
1.42358e-05
-5.44383e-09
1.42422e-05
-4.55214e-09
1.42485e-05
-3.6963e-09
1.42547e-05
-2.88247e-09
-2.11965e-09
1.42607e-05
1.26076e-05
-6.93399e-09
1.26121e-05
-1.27126e-08
1.26177e-05
-1.61008e-08
1.26239e-05
-1.78372e-08
1.26304e-05
-1.85505e-08
1.2637e-05
-1.85833e-08
1.26436e-05
-1.81614e-08
1.26502e-05
-1.74501e-08
1.26567e-05
-1.65616e-08
1.26631e-05
-1.55695e-08
1.26694e-05
-1.45227e-08
1.26756e-05
-1.34547e-08
1.26816e-05
-1.23888e-08
1.26875e-05
-1.13416e-08
1.26933e-05
-1.03257e-08
1.26989e-05
-9.35077e-09
1.27045e-05
-8.42375e-09
-7.55352e-09
1.27099e-05
1.12328e-05
-9.97961e-09
1.12379e-05
-1.77348e-08
1.12437e-05
-2.19109e-08
1.12498e-05
-2.39705e-08
1.12561e-05
-2.48094e-08
1.12623e-05
-2.4838e-08
1.12685e-05
-2.43362e-08
1.12746e-05
-2.3508e-08
1.12805e-05
-2.24859e-08
1.12863e-05
-2.13531e-08
1.12919e-05
-2.01644e-08
1.12974e-05
-1.89562e-08
1.13028e-05
-1.77539e-08
1.1308e-05
-1.6575e-08
1.13131e-05
-1.54327e-08
1.13181e-05
-1.43369e-08
1.1323e-05
-1.32951e-08
-1.23169e-08
1.13277e-05
1.00084e-05
-1.37876e-08
1.00141e-05
-2.33832e-08
1.00201e-05
-2.79205e-08
1.00261e-05
-3.00087e-08
1.00321e-05
-3.07728e-08
1.00379e-05
-3.06483e-08
1.00435e-05
-2.99615e-08
1.0049e-05
-2.8947e-08
1.00542e-05
-2.77468e-08
1.00593e-05
-2.64465e-08
1.00643e-05
-2.51011e-08
1.0069e-05
-2.37464e-08
1.00737e-05
-2.24062e-08
1.00782e-05
-2.10967e-08
1.00826e-05
-1.983e-08
1.00869e-05
-1.86158e-08
1.00911e-05
-1.74625e-08
-1.63819e-08
1.00951e-05
8.91799e-06
-1.86802e-08
8.92431e-06
-2.96988e-08
8.93039e-06
-3.3998e-08
8.93616e-06
-3.57855e-08
8.94166e-06
-3.62695e-08
8.94686e-06
-3.58509e-08
8.95179e-06
-3.48907e-08
8.95649e-06
-3.36389e-08
8.96098e-06
-3.22341e-08
8.96528e-06
-3.07556e-08
8.96944e-06
-2.9253e-08
8.97345e-06
-2.77577e-08
8.97733e-06
-2.62895e-08
8.9811e-06
-2.48613e-08
8.98475e-06
-2.34824e-08
8.9883e-06
-2.21606e-08
8.99174e-06
-2.09046e-08
-1.97296e-08
8.99509e-06
7.94698e-06
-2.49959e-08
7.95384e-06
-3.65554e-08
7.95969e-06
-3.98512e-08
7.96492e-06
-4.10134e-08
7.96969e-06
-4.10416e-08
7.97407e-06
-4.02263e-08
7.97812e-06
-3.89429e-08
7.98192e-06
-3.74373e-08
7.98552e-06
-3.58309e-08
7.98895e-06
-3.41882e-08
7.99225e-06
-3.25486e-08
7.99543e-06
-3.09359e-08
7.9985e-06
-2.93639e-08
8.00148e-06
-2.78403e-08
8.00437e-06
-2.63696e-08
8.00717e-06
-2.4956e-08
8.00987e-06
-2.36073e-08
-2.23433e-08
8.01248e-06
7.08234e-06
-3.30023e-08
7.08935e-06
-4.35647e-08
7.0945e-06
-4.50077e-08
7.09879e-06
-4.52979e-08
7.10252e-06
-4.47763e-08
7.10583e-06
-4.35349e-08
7.10883e-06
-4.19364e-08
7.11159e-06
-4.02037e-08
7.11419e-06
-3.8429e-08
7.11666e-06
-3.66564e-08
7.11902e-06
-3.49126e-08
7.1213e-06
-3.32132e-08
7.1235e-06
-3.15662e-08
7.12563e-06
-2.99741e-08
7.1277e-06
-2.84361e-08
7.12969e-06
-2.69499e-08
7.1316e-06
-2.55177e-08
-2.41572e-08
7.13342e-06
6.31227e-06
-4.27615e-08
6.31861e-06
-4.9905e-08
6.32241e-06
-4.88035e-08
6.32528e-06
-4.81741e-08
6.32763e-06
-4.71245e-08
6.32959e-06
-4.54939e-08
6.33128e-06
-4.3624e-08
6.33278e-06
-4.17062e-08
6.33415e-06
-3.98014e-08
6.33543e-06
-3.79342e-08
6.33664e-06
-3.61202e-08
6.33779e-06
-3.43681e-08
6.3389e-06
-3.268e-08
6.33998e-06
-3.10534e-08
6.34103e-06
-2.94811e-08
6.34203e-06
-2.79508e-08
6.34296e-06
-2.64497e-08
-2.49689e-08
6.34378e-06
5.62594e-06
-5.38023e-08
5.62993e-06
-5.38995e-08
5.63134e-06
-5.0207e-08
5.63199e-06
-4.88225e-08
5.63213e-06
-4.72709e-08
5.63192e-06
-4.52852e-08
5.63149e-06
-4.3195e-08
5.63093e-06
-4.11457e-08
5.63029e-06
-3.91634e-08
5.62961e-06
-3.72533e-08
5.62891e-06
-3.54194e-08
5.62821e-06
-3.36634e-08
5.62751e-06
-3.19828e-08
5.62683e-06
-3.03711e-08
5.62616e-06
-2.88163e-08
5.62551e-06
-2.72942e-08
5.62482e-06
-2.57645e-08
-2.41063e-08
5.62396e-06
5.0106e-06
-6.20967e-08
5.00718e-06
-5.04804e-08
5.00236e-06
-4.53847e-08
4.9969e-06
-4.33628e-08
4.99097e-06
-4.13476e-08
4.98485e-06
-3.91598e-08
4.97867e-06
-3.70218e-08
4.97253e-06
-3.50024e-08
4.96646e-06
-3.30966e-08
4.9605e-06
-3.12935e-08
4.95466e-06
-2.95872e-08
4.94897e-06
-2.79724e-08
4.94343e-06
-2.64427e-08
4.93805e-06
-2.49916e-08
4.93284e-06
-2.36082e-08
4.92781e-06
-2.22673e-08
4.92296e-06
-2.0911e-08
-1.90935e-08
4.91795e-06
4.39445e-06
4.34397e-06
4.29859e-06
4.25522e-06
4.21388e-06
4.17471e-06
4.13769e-06
4.10269e-06
4.06959e-06
4.03829e-06
4.00871e-06
3.98073e-06
3.95429e-06
3.9293e-06
3.90569e-06
3.88342e-06
3.86251e-06
3.84342e-06
3.92624e-08
-3.9264e-08
3.81051e-08
1.13495e-09
-2.32238e-09
4.04043e-08
-7.59387e-08
7.36112e-08
-1.70255e-07
9.43091e-08
-2.77044e-07
1.06791e-07
-3.91975e-07
1.14931e-07
-5.12641e-07
1.20668e-07
-6.3754e-07
1.24903e-07
-7.65619e-07
1.28082e-07
-8.9606e-07
1.30444e-07
-1.0282e-06
1.32148e-07
-1.16151e-06
1.33311e-07
-1.29553e-06
1.34027e-07
-1.4299e-06
1.34373e-07
-1.56431e-06
1.34417e-07
-1.69852e-06
1.34213e-07
-1.83233e-06
1.33811e-07
-1.96558e-06
1.3325e-07
-2.09815e-06
1.32566e-07
-2.22994e-06
1.31787e-07
-2.36087e-06
1.30937e-07
-2.4909e-06
1.30033e-07
-2.61999e-06
1.2909e-07
-2.74811e-06
1.28119e-07
-2.87524e-06
1.27127e-07
-3.00135e-06
1.26115e-07
-3.12643e-06
1.25085e-07
-3.25047e-06
1.24034e-07
-3.37342e-06
1.22957e-07
-3.49527e-06
1.21847e-07
-3.61597e-06
1.20695e-07
-3.73546e-06
1.19489e-07
-3.85367e-06
1.18215e-07
-3.97053e-06
1.16856e-07
-4.08593e-06
1.15396e-07
-4.19974e-06
1.13813e-07
-4.31182e-06
1.12084e-07
-4.42201e-06
1.10186e-07
-4.5301e-06
1.08092e-07
-4.63587e-06
1.0577e-07
-4.73907e-06
1.03191e-07
-4.83939e-06
1.00317e-07
-4.9365e-06
9.71128e-08
-5.03004e-06
9.35364e-08
-5.11959e-06
8.95454e-08
-5.20469e-06
8.50945e-08
-5.28482e-06
8.01357e-08
-5.35944e-06
7.46206e-08
-5.42794e-06
6.85e-08
-5.48966e-06
6.17265e-08
-5.54391e-06
5.42568e-08
-5.58996e-06
4.60536e-08
-5.62705e-06
3.70872e-08
-5.65438e-06
2.73371e-08
-5.67117e-06
1.67932e-08
-5.67663e-06
5.46319e-09
-5.66999e-06
-6.63282e-09
-5.65059e-06
-1.94038e-08
-5.61787e-06
-3.27093e-08
-5.57145e-06
-4.64235e-08
-5.51104e-06
-6.04021e-08
-5.43655e-06
-7.44896e-08
-5.34803e-06
-8.85243e-08
-5.24569e-06
-1.02343e-07
-5.1299e-06
-1.15786e-07
-5.0012e-06
-1.287e-07
-4.86026e-06
-1.40947e-07
-4.70786e-06
-1.52398e-07
-4.54492e-06
-1.62946e-07
-4.37242e-06
-1.72504e-07
-4.19142e-06
-1.81004e-07
-4.00302e-06
-1.88401e-07
-3.80835e-06
-1.94669e-07
-3.60855e-06
-1.99802e-07
-3.40474e-06
-2.03813e-07
-3.198e-06
-2.06733e-07
-2.9894e-06
-2.08603e-07
-2.77992e-06
-2.09477e-07
-2.5705e-06
-2.09417e-07
-2.362e-06
-2.08494e-07
-2.15522e-06
-2.06782e-07
-1.95086e-06
-2.04357e-07
-1.74956e-06
-2.01294e-07
-1.5519e-06
-1.97667e-07
-1.35835e-06
-1.93543e-07
-1.16937e-06
-1.88986e-07
-9.85314e-07
-1.84051e-07
-8.06534e-07
-1.78782e-07
-6.33303e-07
-1.73235e-07
-4.6593e-07
-1.6738e-07
-3.04477e-07
-1.61458e-07
-1.48421e-07
-1.5606e-07
2.66889e-09
-1.51092e-07
1.48448e-07
-1.4578e-07
2.88191e-07
-1.39746e-07
4.21645e-07
-1.3346e-07
5.48876e-07
-1.27242e-07
6.70007e-07
-1.21141e-07
7.85194e-07
-1.15194e-07
8.94616e-07
-1.09425e-07
9.98463e-07
-1.03846e-07
1.09693e-06
-9.84637e-08
1.19021e-06
-9.32789e-08
1.27851e-06
-8.82916e-08
1.36202e-06
-8.35001e-08
1.44093e-06
-7.89018e-08
1.51544e-06
-7.44929e-08
1.58572e-06
-7.02694e-08
1.65195e-06
-6.62274e-08
1.71432e-06
-6.23629e-08
1.77299e-06
-5.86717e-08
1.82814e-06
-5.51489e-08
1.87993e-06
-5.17897e-08
1.92852e-06
-4.85894e-08
1.97406e-06
-4.55428e-08
2.0167e-06
-4.26446e-08
2.05658e-06
-3.98895e-08
2.09385e-06
-3.72726e-08
2.12863e-06
-3.4789e-08
2.16106e-06
-3.24335e-08
2.19125e-06
-3.02009e-08
2.21933e-06
-2.80861e-08
2.24542e-06
-2.60844e-08
2.26961e-06
-2.41915e-08
2.29201e-06
-2.24026e-08
2.31272e-06
-2.0713e-08
2.33184e-06
-1.91182e-08
2.34945e-06
-1.7614e-08
2.36565e-06
-1.61962e-08
2.38051e-06
-1.48607e-08
2.39412e-06
-1.36033e-08
2.40654e-06
-1.24206e-08
2.41785e-06
-1.13086e-08
2.42812e-06
-1.02639e-08
2.4374e-06
-9.28266e-09
2.44577e-06
-8.36165e-09
2.45327e-06
-7.49796e-09
2.45996e-06
-6.68907e-09
2.46589e-06
-5.93247e-09
2.47112e-06
-5.22557e-09
2.47569e-06
-4.56579e-09
2.47964e-06
-3.95092e-09
2.48301e-06
-3.37891e-09
2.48586e-06
-2.84768e-09
2.48821e-06
-2.35504e-09
2.49011e-06
-1.89911e-09
2.49159e-06
-1.47867e-09
2.49268e-06
-1.09244e-09
2.49342e-06
-7.38442e-10
2.49383e-06
-4.15294e-10
2.49396e-06
-1.25453e-10
2.49383e-06
1.32042e-10
2.49346e-06
3.63657e-10
2.49289e-06
5.72337e-10
2.49214e-06
7.59062e-10
2.49122e-06
9.23455e-10
2.49015e-06
1.06422e-09
2.48897e-06
1.18361e-09
2.48769e-06
1.28569e-09
2.48632e-06
1.37019e-09
2.48488e-06
1.43788e-09
2.48338e-06
1.4954e-09
2.48184e-06
1.54535e-09
2.48025e-06
1.58732e-09
2.47862e-06
1.63258e-09
2.47692e-06
1.6942e-09
2.47514e-06
1.78063e-09
2.47323e-06
1.91315e-09
2.47111e-06
2.11805e-09
2.46867e-06
2.43507e-09
2.46574e-06
2.93244e-09
2.46203e-06
3.7075e-09
2.4571e-06
4.93e-09
2.45022e-06
6.88116e-09
2.44006e-06
1.01454e-08
2.42419e-06
1.58789e-08
2.39705e-06
2.71408e-08
2.34517e-06
5.18701e-08
1.25044e-07
2.22013e-06
-5.09661e-08
1.1728e-08
-1.25847e-07
7.60403e-08
-2.08756e-07
1.23323e-07
-2.94861e-07
1.59726e-07
-3.87545e-07
1.86995e-07
-4.8789e-07
2.07136e-07
-5.95087e-07
2.22127e-07
-7.0787e-07
2.33447e-07
-8.25006e-07
2.42034e-07
-9.45437e-07
2.48506e-07
-1.0683e-06
2.53298e-07
-1.19289e-06
2.56732e-07
-1.31863e-06
2.59055e-07
-1.44508e-06
2.60468e-07
-1.57185e-06
2.61139e-07
-1.69864e-06
2.61203e-07
-1.8252e-06
2.60777e-07
-1.95135e-06
2.59958e-07
-2.07694e-06
2.58829e-07
-2.20183e-06
2.57455e-07
-2.32594e-06
2.55894e-07
-2.44919e-06
2.54189e-07
-2.57153e-06
2.52374e-07
-2.69292e-06
2.50477e-07
-2.81331e-06
2.48514e-07
-2.93268e-06
2.46497e-07
-3.051e-06
2.44432e-07
-3.16823e-06
2.42316e-07
-3.28435e-06
2.40146e-07
-3.39931e-06
2.3791e-07
-3.51306e-06
2.35594e-07
-3.62554e-06
2.33177e-07
-3.73669e-06
2.30637e-07
-3.84642e-06
2.27946e-07
-3.95464e-06
2.25073e-07
-4.06122e-06
2.21983e-07
-4.16604e-06
2.18637e-07
-4.26895e-06
2.14993e-07
-4.36977e-06
2.11004e-07
-4.46829e-06
2.06619e-07
-4.5643e-06
2.01783e-07
-4.65754e-06
1.96435e-07
-4.74773e-06
1.9051e-07
-4.83455e-06
1.8394e-07
-4.91766e-06
1.76648e-07
-4.99666e-06
1.68555e-07
-5.07114e-06
1.59579e-07
-5.14063e-06
1.4963e-07
-5.20463e-06
1.38621e-07
-5.26259e-06
1.26462e-07
-5.31393e-06
1.13066e-07
-5.35803e-06
9.83541e-08
-5.39424e-06
8.22544e-08
-5.42186e-06
6.47102e-08
-5.44021e-06
4.56811e-08
-5.44857e-06
2.5144e-08
-5.44621e-06
3.09737e-09
-5.43246e-06
-2.03774e-08
-5.40676e-06
-4.51097e-08
-5.36857e-06
-7.09022e-08
-5.31748e-06
-9.7519e-08
-5.25319e-06
-1.2469e-07
-5.17556e-06
-1.52118e-07
-5.08459e-06
-1.7949e-07
-4.98044e-06
-2.06488e-07
-4.86343e-06
-2.32792e-07
-4.73402e-06
-2.581e-07
-4.59284e-06
-2.82125e-07
-4.44062e-06
-3.04613e-07
-4.27821e-06
-3.25342e-07
-4.10658e-06
-3.44131e-07
-3.92674e-06
-3.60842e-07
-3.73976e-06
-3.75377e-07
-3.54674e-06
-3.87685e-07
-3.34879e-06
-3.97749e-07
-3.147e-06
-4.05594e-07
-2.94246e-06
-4.11276e-07
-2.73618e-06
-4.14879e-07
-2.52915e-06
-4.16509e-07
-2.32228e-06
-4.16289e-07
-2.11642e-06
-4.14357e-07
-1.91235e-06
-4.10863e-07
-1.71075e-06
-4.0596e-07
-1.51224e-06
-3.99798e-07
-1.31738e-06
-3.92532e-07
-1.12662e-06
-3.84305e-07
-9.40345e-07
-3.75262e-07
-7.58855e-07
-3.65542e-07
-5.82357e-07
-3.55276e-07
-4.10923e-07
-3.44665e-07
-2.44509e-07
-3.33791e-07
-8.28679e-08
-3.23098e-07
7.35465e-08
-3.12476e-07
2.23756e-07
-3.01304e-07
3.6735e-07
-2.89374e-07
5.04534e-07
-2.76927e-07
6.35598e-07
-2.64514e-07
7.60638e-07
-2.52268e-07
8.79794e-07
-2.40285e-07
9.93226e-07
-2.28618e-07
1.1011e-06
-2.17298e-07
1.2036e-06
-2.06343e-07
1.3009e-06
-1.95764e-07
1.39318e-06
-1.85563e-07
1.48062e-06
-1.75742e-07
1.56341e-06
-1.66298e-07
1.64173e-06
-1.57228e-07
1.71575e-06
-1.48526e-07
1.78566e-06
-1.40187e-07
1.85163e-06
-1.32204e-07
1.91383e-06
-1.24571e-07
1.97244e-06
-1.17277e-07
2.0276e-06
-1.10316e-07
2.07949e-06
-1.03678e-07
2.12826e-06
-9.7353e-08
2.17406e-06
-9.13322e-08
2.21702e-06
-8.56055e-08
2.2573e-06
-8.01628e-08
2.29503e-06
-7.49945e-08
2.33034e-06
-7.00902e-08
2.36335e-06
-6.54399e-08
2.39419e-06
-6.10335e-08
2.42297e-06
-5.6861e-08
2.44981e-06
-5.29128e-08
2.4748e-06
-4.91793e-08
2.49805e-06
-4.56509e-08
2.51965e-06
-4.23186e-08
2.53971e-06
-3.91734e-08
2.5583e-06
-3.62069e-08
2.57551e-06
-3.34105e-08
2.59142e-06
-3.07762e-08
2.60612e-06
-2.82963e-08
2.61966e-06
-2.59632e-08
2.63212e-06
-2.37697e-08
2.64356e-06
-2.17089e-08
2.65405e-06
-1.9774e-08
2.66365e-06
-1.79587e-08
2.67241e-06
-1.62575e-08
2.68038e-06
-1.46648e-08
2.68763e-06
-1.31753e-08
2.69418e-06
-1.17838e-08
2.7001e-06
-1.04855e-08
2.70542e-06
-9.27595e-09
2.71019e-06
-8.15083e-09
2.71445e-06
-7.10617e-09
2.71823e-06
-6.13808e-09
2.72157e-06
-5.24303e-09
2.72451e-06
-4.41783e-09
2.72708e-06
-3.6595e-09
2.72931e-06
-2.96499e-09
2.73122e-06
-2.33154e-09
2.73286e-06
-1.75734e-09
2.73423e-06
-1.24133e-09
2.73538e-06
-7.80715e-10
2.73633e-06
-3.72349e-10
2.73711e-06
-1.50332e-11
2.73774e-06
2.94058e-10
2.73825e-06
5.58658e-10
2.73865e-06
7.81087e-10
2.73897e-06
9.64963e-10
2.73923e-06
1.11343e-09
2.73944e-06
1.22931e-09
2.73961e-06
1.31979e-09
2.73976e-06
1.39438e-09
2.73989e-06
1.45987e-09
2.73999e-06
1.52906e-09
2.74006e-06
1.62441e-09
2.74007e-06
1.77061e-09
2.73997e-06
2.0056e-09
2.7397e-06
2.387e-09
2.73915e-06
2.99311e-09
2.73813e-06
3.94751e-09
2.73639e-06
5.4477e-09
2.73349e-06
7.8184e-09
2.72878e-06
1.16046e-08
2.72108e-06
1.78423e-08
2.7084e-06
2.85431e-08
2.68726e-06
4.82828e-08
2.65175e-06
8.73725e-08
1.74199e-07
2.6026e-06
-9.52972e-08
1.07007e-07
-1.91473e-07
1.72212e-07
-2.86236e-07
2.18081e-07
-3.8124e-07
2.54732e-07
-4.78343e-07
2.84101e-07
-5.78607e-07
3.07403e-07
-6.82238e-07
3.25762e-07
-7.88929e-07
3.40141e-07
-8.98195e-07
3.51303e-07
-1.00952e-06
3.59837e-07
-1.12244e-06
3.66212e-07
-1.23651e-06
3.70803e-07
-1.35137e-06
3.7392e-07
-1.46672e-06
3.75823e-07
-1.58231e-06
3.76726e-07
-1.69792e-06
3.76815e-07
-1.81338e-06
3.76243e-07
-1.92857e-06
3.75141e-07
-2.04335e-06
3.73616e-07
-2.15765e-06
3.71758e-07
-2.2714e-06
3.69639e-07
-2.38453e-06
3.67316e-07
-2.49699e-06
3.64835e-07
-2.60874e-06
3.62228e-07
-2.71975e-06
3.59517e-07
-2.82996e-06
3.56715e-07
-2.93936e-06
3.53827e-07
-3.04789e-06
3.50849e-07
-3.15552e-06
3.47771e-07
-3.26218e-06
3.44577e-07
-3.36783e-06
3.41242e-07
-3.47239e-06
3.37739e-07
-3.57578e-06
3.34033e-07
-3.67792e-06
3.30083e-07
-3.7787e-06
3.25845e-07
-3.87799e-06
3.21268e-07
-3.97565e-06
3.16296e-07
-4.07153e-06
3.10868e-07
-4.16544e-06
3.04916e-07
-4.25719e-06
2.98366e-07
-4.34654e-06
2.91139e-07
-4.43326e-06
2.83147e-07
-4.51704e-06
2.74299e-07
-4.59759e-06
2.64492e-07
-4.67456e-06
2.53622e-07
-4.74758e-06
2.41573e-07
-4.81623e-06
2.28227e-07
-4.88006e-06
2.13459e-07
-4.93858e-06
1.97143e-07
-4.99127e-06
1.79151e-07
-5.03756e-06
1.5936e-07
-5.07686e-06
1.37651e-07
-5.10853e-06
1.13924e-07
-5.13191e-06
8.80945e-08
-5.14633e-06
6.01051e-08
-5.15111e-06
2.99291e-08
-5.1456e-06
-2.41992e-09
-5.12914e-06
-3.6835e-08
-5.10115e-06
-7.30991e-08
-5.06111e-06
-1.10941e-07
-5.0086e-06
-1.50026e-07
-4.94333e-06
-1.89962e-07
-4.86513e-06
-2.30318e-07
-4.77399e-06
-2.70631e-07
-4.67005e-06
-3.10426e-07
-4.55362e-06
-3.49226e-07
-4.42515e-06
-3.86572e-07
-4.28524e-06
-4.22032e-07
-4.13464e-06
-4.55217e-07
-3.97419e-06
-4.85791e-07
-3.80484e-06
-5.13478e-07
-3.62762e-06
-5.38068e-07
-3.44358e-06
-5.59419e-07
-3.25381e-06
-5.77451e-07
-3.05942e-06
-5.92145e-07
-2.86148e-06
-6.03537e-07
-2.66104e-06
-6.11716e-07
-2.45911e-06
-6.16811e-07
-2.25663e-06
-6.18985e-07
-2.0545e-06
-6.18423e-07
-1.85352e-06
-6.15335e-07
-1.65443e-06
-6.09947e-07
-1.4579e-06
-6.02493e-07
-1.2645e-06
-5.93198e-07
-1.07473e-06
-5.82302e-07
-8.89003e-07
-5.70026e-07
-7.07664e-07
-5.56601e-07
-5.30959e-07
-5.42248e-07
-3.59059e-07
-5.27177e-07
-1.92028e-07
-5.11697e-07
-2.9878e-08
-4.95941e-07
1.26626e-07
-4.79602e-07
2.76625e-07
-4.62474e-07
4.2015e-07
-4.44829e-07
5.5748e-07
-4.26706e-07
6.88914e-07
-4.08363e-07
8.14545e-07
-3.90147e-07
9.34491e-07
-3.72216e-07
1.04888e-06
-3.54672e-07
1.15784e-06
-3.3758e-07
1.26152e-06
-3.2098e-07
1.36008e-06
-3.04899e-07
1.45367e-06
-2.89354e-07
1.54246e-06
-2.74352e-07
1.62662e-06
-2.59898e-07
1.70632e-06
-2.45991e-07
1.78172e-06
-2.32629e-07
1.853e-06
-2.19805e-07
1.92033e-06
-2.07513e-07
1.98387e-06
-1.95744e-07
2.04379e-06
-1.84488e-07
2.10024e-06
-1.73733e-07
2.1534e-06
-1.63467e-07
2.20339e-06
-1.53678e-07
2.25039e-06
-1.4435e-07
2.29453e-06
-1.35472e-07
2.33595e-06
-1.27027e-07
2.37478e-06
-1.19001e-07
2.41117e-06
-1.1138e-07
2.44522e-06
-1.04149e-07
2.47708e-06
-9.72923e-08
2.50684e-06
-9.0796e-08
2.53462e-06
-8.46453e-08
2.56053e-06
-7.88257e-08
2.58468e-06
-7.33232e-08
2.60715e-06
-6.81238e-08
2.62805e-06
-6.3214e-08
2.64746e-06
-5.85807e-08
2.66546e-06
-5.4211e-08
2.68214e-06
-5.00928e-08
2.69758e-06
-4.62141e-08
2.71185e-06
-4.25632e-08
2.72502e-06
-3.91292e-08
2.73715e-06
-3.59015e-08
2.74831e-06
-3.28698e-08
2.75856e-06
-3.00245e-08
2.76796e-06
-2.73563e-08
2.77656e-06
-2.48567e-08
2.78441e-06
-2.25174e-08
2.79157e-06
-2.03307e-08
2.79808e-06
-1.82889e-08
2.80397e-06
-1.6385e-08
2.80931e-06
-1.46124e-08
2.81412e-06
-1.29647e-08
2.81845e-06
-1.1436e-08
2.82233e-06
-1.00206e-08
2.8258e-06
-8.71317e-09
2.82889e-06
-7.50907e-09
2.83164e-06
-6.40401e-09
2.83407e-06
-5.39379e-09
2.83621e-06
-4.47415e-09
2.8381e-06
-3.64177e-09
2.83975e-06
-2.89413e-09
2.8412e-06
-2.22839e-09
2.84247e-06
-1.64074e-09
2.84358e-06
-1.1281e-09
2.84456e-06
-6.87552e-10
2.84544e-06
-3.15325e-10
2.84623e-06
-7.82809e-12
2.84695e-06
2.40207e-10
2.84763e-06
4.35391e-10
2.84828e-06
5.83002e-10
2.84891e-06
6.91204e-10
2.84953e-06
7.73144e-10
2.85014e-06
8.42783e-10
2.85075e-06
9.18637e-10
2.85135e-06
1.03022e-09
2.8519e-06
1.21545e-09
2.85238e-06
1.52895e-09
2.85271e-06
2.05355e-09
2.8528e-06
2.90434e-09
2.85249e-06
4.25756e-09
2.85155e-06
6.38924e-09
2.84962e-06
9.74463e-09
2.84616e-06
1.50625e-08
2.84035e-06
2.36569e-08
2.83095e-06
3.79357e-08
2.81646e-06
6.27731e-08
2.79615e-06
1.07675e-07
1.92739e-07
2.77762e-06
-1.03657e-07
2.10663e-07
-2.07456e-07
2.76013e-07
-3.0803e-07
3.18656e-07
-4.06646e-07
3.53348e-07
-5.04614e-07
3.8207e-07
-6.02846e-07
4.05637e-07
-7.01832e-07
4.24749e-07
-8.01747e-07
4.40056e-07
-9.02583e-07
4.52139e-07
-1.00424e-06
4.61495e-07
-1.10658e-06
4.68551e-07
-1.20945e-06
4.73673e-07
-1.31271e-06
4.77176e-07
-1.41622e-06
4.79329e-07
-1.51986e-06
4.80365e-07
-1.62353e-06
4.80481e-07
-1.72713e-06
4.79846e-07
-1.83059e-06
4.78603e-07
-1.93385e-06
4.76872e-07
-2.03684e-06
4.7475e-07
-2.13952e-06
4.72318e-07
-2.24184e-06
4.69638e-07
-2.34377e-06
4.6676e-07
-2.44527e-06
4.6372e-07
-2.54629e-06
4.60539e-07
-2.64681e-06
4.57231e-07
-2.74678e-06
4.53797e-07
-2.84616e-06
4.50231e-07
-2.94491e-06
4.46518e-07
-3.04296e-06
4.42634e-07
-3.14027e-06
4.38548e-07
-3.23675e-06
4.34222e-07
-3.33233e-06
4.2961e-07
-3.42691e-06
4.24662e-07
-3.52038e-06
4.19319e-07
-3.61263e-06
4.13514e-07
-3.70351e-06
4.07176e-07
-3.79286e-06
4.00224e-07
-3.88051e-06
3.9257e-07
-3.96627e-06
3.84119e-07
-4.04989e-06
3.74767e-07
-4.13114e-06
3.64403e-07
-4.20975e-06
3.52906e-07
-4.2854e-06
3.40145e-07
-4.35776e-06
3.25983e-07
-4.42646e-06
3.10272e-07
-4.49109e-06
2.92858e-07
-4.55121e-06
2.73577e-07
-4.60634e-06
2.52265e-07
-4.65594e-06
2.28754e-07
-4.69946e-06
2.0288e-07
-4.7363e-06
1.74488e-07
-4.76582e-06
1.4344e-07
-4.78735e-06
1.09625e-07
-4.80021e-06
7.29651e-08
-4.80371e-06
3.34294e-08
-4.79717e-06
-8.9555e-09
-4.77994e-06
-5.4064e-08
-4.7514e-06
-1.01636e-07
-4.71103e-06
-1.51319e-07
-4.65838e-06
-2.02673e-07
-4.59316e-06
-2.55184e-07
-4.5152e-06
-3.08277e-07
-4.42449e-06
-3.61336e-07
-4.3212e-06
-4.1372e-07
-4.20564e-06
-4.64788e-07
-4.07829e-06
-5.13919e-07
-3.93979e-06
-5.6053e-07
-3.79091e-06
-6.04095e-07
-3.63254e-06
-6.44162e-07
-3.46566e-06
-6.80366e-07
-3.29129e-06
-7.12431e-07
-3.11053e-06
-7.40178e-07
-2.92448e-06
-7.6351e-07
-2.73421e-06
-7.82412e-07
-2.54081e-06
-7.96943e-07
-2.34529e-06
-8.0723e-07
-2.14865e-06
-8.13458e-07
-1.95178e-06
-8.15852e-07
-1.75554e-06
-8.14666e-07
-1.5607e-06
-8.1018e-07
-1.36794e-06
-8.02705e-07
-1.17787e-06
-7.92562e-07
-9.91024e-07
-7.80039e-07
-8.07858e-07
-7.65467e-07
-6.28747e-07
-7.49136e-07
-4.53988e-07
-7.31358e-07
-2.83807e-07
-7.12428e-07
-1.18413e-07
-6.92571e-07
4.18856e-08
-6.71996e-07
1.96315e-07
-6.50371e-07
3.44518e-07
-6.27805e-07
4.86614e-07
-6.04569e-07
6.22731e-07
-5.80947e-07
7.53108e-07
-5.57081e-07
8.77935e-07
-5.3319e-07
9.97302e-07
-5.09515e-07
1.1113e-06
-4.86219e-07
1.22005e-06
-4.63415e-07
1.32365e-06
-4.41181e-07
1.42224e-06
-4.1957e-07
1.51596e-06
-3.98618e-07
1.60495e-06
-3.78349e-07
1.68938e-06
-3.58778e-07
1.76939e-06
-3.39913e-07
1.84516e-06
-3.21755e-07
1.91683e-06
-3.04304e-07
1.98458e-06
-2.87552e-07
2.04856e-06
-2.71493e-07
2.10893e-06
-2.56116e-07
2.16585e-06
-2.41407e-07
2.21947e-06
-2.27353e-07
2.26994e-06
-2.13939e-07
2.31741e-06
-2.01146e-07
2.36202e-06
-1.88958e-07
2.40391e-06