/*--------------------------------*- C++ -*----------------------------------*\
| =========                 |                                                 |
| \\      /  F ield         | OpenFOAM: The Open Source CFD Toolbox           |
|  \\    /   O peration     | Version:  1.4.2                                 |
|   \\  /    A nd           | Web:      http://www.openfoam.org               |
|    \\/     M anipulation  |                                                 |
\*---------------------------------------------------------------------------*/
FoamFile
{
    version     2.0;
    format      ascii;
    class       volVectorField;
    object      U;
    location    "250";
}
// * * * * * * * * * * * * * * * * * * * * * * * * * * * * * * * * * * * * * //

dimensions      [0 1 -1 0 0 0 0];

internalField   nonuniform List<vector> 
12225
(
(9.77624 0.0380963 0)
(9.58134 0.0388379 0)
(9.3666 0.0370749 0)
(9.16027 0.0362335 0)
(8.96855 0.0353162 0)
(8.78926 0.0341781 0)
(8.62118 0.0329488 0)
(8.46401 0.0316932 0)
(8.31735 0.030427 0)
(8.1807 0.0291582 0)
(8.05355 0.0278939 0)
(7.93538 0.026639 0)
(7.82572 0.0253948 0)
(7.72414 0.0241548 0)
(7.63031 0.0228946 0)
(7.54407 0.0215422 0)
(7.4665 0.0199637 0)
(7.38944 0.00864446 0)
(10.0039 0.0586294 0)
(10.0074 0.0556492 0)
(9.9823 0.0520546 0)
(9.94964 0.0517047 0)
(9.91593 0.051519 0)
(9.88067 0.0509671 0)
(9.84383 0.0502581 0)
(9.80596 0.0494868 0)
(9.76751 0.0486586 0)
(9.72876 0.0477727 0)
(9.68995 0.0468334 0)
(9.65131 0.0458418 0)
(9.61305 0.0447896 0)
(9.5754 0.0436478 0)
(9.53865 0.0423379 0)
(9.50326 0.0406498 0)
(9.47038 0.0380389 0)
(9.43667 0.0317399 0)
(10.0174 0.0525217 0)
(10.0367 0.05288 0)
(10.0376 0.0515802 0)
(10.0324 0.0526671 0)
(10.0263 0.0534516 0)
(10.0189 0.0536227 0)
(10.0103 0.0535191 0)
(10.0008 0.0532925 0)
(9.99048 0.0529704 0)
(9.97961 0.0525641 0)
(9.96823 0.052084 0)
(9.95642 0.0515312 0)
(9.94427 0.0508897 0)
(9.93188 0.0501115 0)
(9.91935 0.0490799 0)
(9.90681 0.0475193 0)
(9.89443 0.0447441 0)
(9.87837 0.0387064 0)
(10.0158 0.0450928 0)
(10.0372 0.0504305 0)
(10.0452 0.0511411 0)
(10.0475 0.0528521 0)
(10.0487 0.054055 0)
(10.0489 0.0546108 0)
(10.048 0.0548448 0)
(10.0464 0.0549152 0)
(10.0441 0.0548654 0)
(10.0415 0.0547171 0)
(10.0384 0.0544856 0)
(10.035 0.054173 0)
(10.0312 0.0537616 0)
(10.0273 0.0532004 0)
(10.0231 0.0523788 0)
(10.0186 0.0510753 0)
(10.0136 0.0489113 0)
(10.0056 0.0452562 0)
(10.0125 0.0372767 0)
(10.0327 0.0465626 0)
(10.0438 0.0492277 0)
(10.0495 0.0516057 0)
(10.0538 0.0532085 0)
(10.057 0.0540834 0)
(10.0593 0.0545704 0)
(10.0608 0.0548474 0)
(10.0617 0.0549766 0)
(10.0622 0.05499 0)
(10.0623 0.054909 0)
(10.0621 0.0547396 0)
(10.0615 0.0544688 0)
(10.0607 0.054056 0)
(10.0595 0.0534211 0)
(10.0579 0.0524322 0)
(10.0555 0.0509528 0)
(10.051 0.0489224 0)
(10.0093 0.0304891 0)
(10.0269 0.0419209 0)
(10.0391 0.0462744 0)
(10.0468 0.0493948 0)
(10.0529 0.0514655 0)
(10.0579 0.0527016 0)
(10.0618 0.0534628 0)
(10.065 0.0539501 0)
(10.0676 0.0542536 0)
(10.0697 0.0544235 0)
(10.0714 0.0544907 0)
(10.0727 0.054468 0)
(10.0737 0.0543503 0)
(10.0743 0.0541136 0)
(10.0745 0.0537157 0)
(10.0742 0.0531063 0)
(10.0731 0.0522984 0)
(10.0706 0.0514507 0)
(10.0067 0.0247967 0)
(10.0212 0.0370546 0)
(10.0333 0.0426329 0)
(10.042 0.0463981 0)
(10.0492 0.0489446 0)
(10.0553 0.0505722 0)
(10.0603 0.0516396 0)
(10.0646 0.0523665 0)
(10.0683 0.0528676 0)
(10.0714 0.0532102 0)
(10.0741 0.0534365 0)
(10.0763 0.05357 0)
(10.0782 0.0536195 0)
(10.0796 0.053582 0)
(10.0807 0.053451 0)
(10.0811 0.0532369 0)
(10.0809 0.0530249 0)
(10.0797 0.0530157 0)
(10.005 0.0207358 0)
(10.017 0.0330002 0)
(10.0283 0.0392453 0)
(10.0372 0.043435 0)
(10.0448 0.0463201 0)
(10.0514 0.0482474 0)
(10.0571 0.0495706 0)
(10.062 0.0505137 0)
(10.0663 0.0512012 0)
(10.0701 0.0517107 0)
(10.0733 0.0520933 0)
(10.0761 0.0523824 0)
(10.0785 0.0525985 0)
(10.0805 0.0527554 0)
(10.082 0.0528705 0)
(10.083 0.052985 0)
(10.0833 0.0532065 0)
(10.0829 0.0537116 0)
(10.0038 0.0176363 0)
(10.0138 0.0295284 0)
(10.0242 0.0361277 0)
(10.0329 0.0406085 0)
(10.0405 0.0437443 0)
(10.0474 0.045907 0)
(10.0534 0.0474402 0)
(10.0588 0.0485667 0)
(10.0635 0.0494182 0)
(10.0677 0.0500803 0)
(10.0714 0.0506111 0)
(10.0746 0.051051 0)
(10.0774 0.0514293 0)
(10.0798 0.0517721 0)
(10.0817 0.0521124 0)
(10.083 0.0525067 0)
(10.0839 0.0530627 0)
(10.0841 0.0539191 0)
(10.0028 0.0148416 0)
(10.011 0.0260103 0)
(10.0202 0.0327354 0)
(10.0284 0.0373936 0)
(10.0359 0.0407232 0)
(10.0428 0.0430922 0)
(10.049 0.0448228 0)
(10.0546 0.0461315 0)
(10.0596 0.0471531 0)
(10.0642 0.0479782 0)
(10.0682 0.0486707 0)
(10.0718 0.0492781 0)
(10.075 0.0498383 0)
(10.0777 0.0503876 0)
(10.08 0.0509701 0)
(10.0818 0.0516481 0)
(10.0831 0.0525154 0)
(10.084 0.05367 0)
(10.0021 0.0123497 0)
(10.0085 0.0225301 0)
(10.0165 0.0291511 0)
(10.0241 0.0338472 0)
(10.0312 0.0372852 0)
(10.0379 0.0398077 0)
(10.0441 0.0417035 0)
(10.0498 0.0431767 0)
(10.055 0.0443613 0)
(10.0598 0.0453497 0)
(10.0641 0.04621 0)
(10.068 0.0469946 0)
(10.0715 0.0477478 0)
(10.0745 0.048513 0)
(10.0772 0.0493391 0)
(10.0794 0.0502872 0)
(10.0812 0.051432 0)
(10.0828 0.0528343 0)
(10.0015 0.0101558 0)
(10.0065 0.0191619 0)
(10.0133 0.0254521 0)
(10.0201 0.0300385 0)
(10.0268 0.0334805 0)
(10.0331 0.0360824 0)
(10.0392 0.0380923 0)
(10.0448 0.0396957 0)
(10.05 0.0410206 0)
(10.0549 0.0421587 0)
(10.0593 0.0431789 0)
(10.0634 0.0441366 0)
(10.0671 0.0450794 0)
(10.0705 0.0460533 0)
(10.0735 0.0471067 0)
(10.0761 0.0482932 0)
(10.0784 0.0496673 0)
(10.0805 0.0512599 0)
(10.0011 0.00823461 0)
(10.005 0.0159563 0)
(10.0106 0.0217049 0)
(10.0167 0.0260307 0)
(10.0227 0.029361 0)
(10.0287 0.0319522 0)
(10.0344 0.0340092 0)
(10.0399 0.035693 0)
(10.045 0.037121 0)
(10.0499 0.0383801 0)
(10.0544 0.0395374 0)
(10.0586 0.0406479 0)
(10.0625 0.0417591 0)
(10.0661 0.0429153 0)
(10.0694 0.04416 0)
(10.0724 0.0455362 0)
(10.0751 0.0470803 0)
(10.0777 0.0488015 0)
(10.0008 0.00653906 0)
(10.0039 0.0129278 0)
(10.0085 0.0179531 0)
(10.0138 0.021867 0)
(10.0193 0.0249627 0)
(10.0248 0.0274417 0)
(10.0302 0.0294658 0)
(10.0354 0.031167 0)
(10.0405 0.0326472 0)
(10.0452 0.0339846 0)
(10.0498 0.035241 0)
(10.054 0.0364674 0)
(10.058 0.0377077 0)
(10.0618 0.0390012 0)
(10.0653 0.0403838 0)
(10.0686 0.0418871 0)
(10.0717 0.0435335 0)
(10.0747 0.0453183 0)
(10.0006 0.00500886 0)
(10.0031 0.010051 0)
(10.007 0.0142041 0)
(10.0116 0.0175578 0)
(10.0165 0.0202904 0)
(10.0216 0.0225465 0)
(10.0267 0.0244453 0)
(10.0317 0.026088 0)
(10.0366 0.0275563 0)
(10.0413 0.0289153 0)
(10.0458 0.030218 0)
(10.0501 0.0315077 0)
(10.0542 0.0328216 0)
(10.0581 0.0341915 0)
(10.0618 0.0356445 0)
(10.0654 0.0372023 0)
(10.0688 0.0388772 0)
(10.0722 0.0406571 0)
(10.0005 0.00357543 0)
(10.0026 0.0072581 0)
(10.0059 0.0104141 0)
(10.01 0.013063 0)
(10.0145 0.0152992 0)
(10.0193 0.0172128 0)
(10.0241 0.0188824 0)
(10.0289 0.020377 0)
(10.0337 0.0217551 0)
(10.0383 0.0230649 0)
(10.0428 0.0243462 0)
(10.0472 0.0256321 0)
(10.0514 0.0269501 0)
(10.0554 0.0283232 0)
(10.0593 0.0297696 0)
(10.0631 0.0313025 0)
(10.0668 0.0329273 0)
(10.0705 0.034629 0)
(10.0005 0.00216018 0)
(10.0023 0.00443671 0)
(10.0053 0.00647511 0)
(10.009 0.00827635 0)
(10.0133 0.00987771 0)
(10.0178 0.0113211 0)
(10.0225 0.0126463 0)
(10.0272 0.0138901 0)
(10.0319 0.015085 0)
(10.0365 0.0162592 0)
(10.0411 0.0174365 0)
(10.0455 0.0186369 0)
(10.0498 0.0198768 0)
(10.054 0.0211692 0)
(10.0581 0.0225237 0)
(10.0622 0.0239463 0)
(10.0661 0.0254376 0)
(10.0701 0.0269826 0)
(10.0004 0.000750781 0)
(10.0022 0.00159695 0)
(10.0051 0.00245813 0)
(10.0088 0.00333408 0)
(10.013 0.00421805 0)
(10.0175 0.00510811 0)
(10.0221 0.00600702 0)
(10.0269 0.00692019 0)
(10.0316 0.00785429 0)
(10.0363 0.00881654 0)
(10.0409 0.00981403 0)
(10.0455 0.0108532 0)
(10.05 0.0119391 0)
(10.0544 0.0130757 0)
(10.0587 0.0142649 0)
(10.0629 0.0155066 0)
(10.067 0.0167977 0)
(10.0712 0.0181241 0)
(10.0005 -0.000619926 0)
(10.0024 -0.00116128 0)
(10.0055 -0.00143083 0)
(10.0093 -0.00143927 0)
(10.0137 -0.00124345 0)
(10.0183 -0.000890065 0)
(10.0231 -0.000411987 0)
(10.0279 0.000166375 0)
(10.0328 0.000827452 0)
(10.0376 0.00155941 0)
(10.0424 0.00235449 0)
(10.0471 0.0032073 0)
(10.0517 0.00411358 0)
(10.0562 0.00506956 0)
(10.0607 0.00607141 0)
(10.0651 0.00711467 0)
(10.0694 0.00819378 0)
(10.0737 0.009295 0)
(10.0006 -0.00200028 0)
(10.0028 -0.00388442 0)
(10.0063 -0.00518648 0)
(10.0105 -0.0059697 0)
(10.0152 -0.0063652 0)
(10.0201 -0.00646887 0)
(10.0251 -0.00634885 0)
(10.0301 -0.0060579 0)
(10.0351 -0.00563534 0)
(10.0401 -0.00510898 0)
(10.045 -0.00449843 0)
(10.0499 -0.00381807 0)
(10.0546 -0.00307883 0)
(10.0593 -0.00228984 0)
(10.0638 -0.00145923 0)
(10.0683 -0.000594684 0)
(10.0727 0.000296373 0)
(10.0771 0.0012006 0)
(10.0007 -0.00349892 0)
(10.0034 -0.00673134 0)
(10.0076 -0.00896268 0)
(10.0124 -0.0103958 0)
(10.0174 -0.0112715 0)
(10.0227 -0.0117376 0)
(10.0279 -0.0118972 0)
(10.0332 -0.0118304 0)
(10.0384 -0.0115958 0)
(10.0435 -0.011234 0)
(10.0486 -0.0107736 0)
(10.0535 -0.0102353 0)
(10.0584 -0.00963518 0)
(10.0631 -0.00898598 0)
(10.0677 -0.00829859 0)
(10.0722 -0.0075829 0)
(10.0767 -0.00684771 0)
(10.0811 -0.00610633 0)
(10.001 -0.00523473 0)
(10.0045 -0.00983618 0)
(10.0095 -0.0128562 0)
(10.015 -0.0147891 0)
(10.0205 -0.0160188 0)
(10.0261 -0.0167397 0)
(10.0317 -0.0170889 0)
(10.0371 -0.0171733 0)
(10.0425 -0.0170672 0)
(10.0477 -0.0168207 0)
(10.0528 -0.0164683 0)
(10.0577 -0.016035 0)
(10.0626 -0.0155393 0)
(10.0673 -0.0149962 0)
(10.0719 -0.014418 0)
(10.0764 -0.0138161 0)
(10.0808 -0.0132006 0)
(10.0852 -0.0125855 0)
(10.0014 -0.00735627 0)
(10.0061 -0.0133109 0)
(10.0123 -0.0169056 0)
(10.0184 -0.0191545 0)
(10.0245 -0.0205943 0)
(10.0303 -0.0214494 0)
(10.0361 -0.0218895 0)
(10.0416 -0.022046 0)
(10.047 -0.0220048 0)
(10.0521 -0.0218211 0)
(10.0571 -0.0215325 0)
(10.062 -0.0211656 0)
(10.0667 -0.0207398 0)
(10.0713 -0.0202701 0)
(10.0758 -0.0197691 0)
(10.0801 -0.0192488 0)
(10.0843 -0.0187205 0)
(10.0885 -0.0182007 0)
(10.0022 -0.010049 0)
(10.0086 -0.0172262 0)
(10.0159 -0.0210761 0)
(10.0227 -0.02342 0)
(10.029 -0.0249089 0)
(10.035 -0.0257693 0)
(10.0407 -0.0262011 0)
(10.0461 -0.0263549 0)
(10.0512 -0.0263212 0)
(10.0561 -0.0261554 0)
(10.0609 -0.025894 0)
(10.0655 -0.0255625 0)
(10.0699 -0.0251787 0)
(10.0742 -0.0247561 0)
(10.0783 -0.0243059 0)
(10.0824 -0.0238397 0)
(10.0863 -0.02337 0)
(10.0902 -0.0229176 0)
(10.0033 -0.0135332 0)
(10.0119 -0.0215703 0)
(10.0204 -0.0252356 0)
(10.0274 -0.02743 0)
(10.0336 -0.0288066 0)
(10.0394 -0.0295542 0)
(10.0447 -0.0298938 0)
(10.0496 -0.0299852 0)
(10.0542 -0.0299152 0)
(10.0587 -0.0297341 0)
(10.0629 -0.0294745 0)
(10.067 -0.0291582 0)
(10.0709 -0.0287997 0)
(10.0747 -0.0284088 0)
(10.0784 -0.0279935 0)
(10.082 -0.0275626 0)
(10.0855 -0.027129 0)
(10.0889 -0.026719 0)
(10.0051 -0.0180641 0)
(10.0162 -0.0261709 0)
(10.0253 -0.0291118 0)
(10.0318 -0.0309284 0)
(10.0373 -0.032052 0)
(10.0423 -0.0325934 0)
(10.0467 -0.0327856 0)
(10.0508 -0.032784 0)
(10.0545 -0.0326613 0)
(10.0581 -0.0324556 0)
(10.0615 -0.0321917 0)
(10.0648 -0.0318857 0)
(10.068 -0.0315471 0)
(10.071 -0.0311813 0)
(10.074 -0.030791 0)
(10.0769 -0.0303792 0)
(10.0796 -0.0299552 0)
(10.0823 -0.0295485 0)
(10.0075 -0.0239606 0)
(10.0209 -0.0306723 0)
(10.0294 -0.0322663 0)
(10.0342 -0.0335587 0)
(10.0381 -0.0343837 0)
(10.0415 -0.0347035 0)
(10.0444 -0.0347477 0)
(10.0469 -0.034659 0)
(10.0491 -0.0344905 0)
(10.0512 -0.0342658 0)
(10.0532 -0.0340011 0)
(10.0551 -0.0337069 0)
(10.0569 -0.0333882 0)
(10.0586 -0.0330461 0)
(10.0603 -0.0326772 0)
(10.0619 -0.0322751 0)
(10.0635 -0.0318366 0)
(10.0649 -0.0313769 0)
(10.0101 -0.030637 0)
(10.0241 -0.03417 0)
(10.0293 -0.0339867 0)
(10.0303 -0.0347144 0)
(10.0307 -0.0352609 0)
(10.0306 -0.0353847 0)
(10.03 -0.0352962 0)
(10.0291 -0.0351217 0)
(10.028 -0.034897 0)
(10.0269 -0.0346359 0)
(10.0256 -0.0343491 0)
(10.0244 -0.034044 0)
(10.0231 -0.0337235 0)
(10.0219 -0.0333854 0)
(10.0207 -0.0330209 0)
(10.0195 -0.0326093 0)
(10.0183 -0.0321178 0)
(10.017 -0.0314864 0)
(10.0063 -0.0363456 0)
(10.0145 -0.0378094 0)
(10.0073 -0.0358948 0)
(9.99536 -0.0356744 0)
(9.9834 -0.0356093 0)
(9.97138 -0.0353093 0)
(9.95909 -0.0349145 0)
(9.94674 -0.0345111 0)
(9.9345 -0.0341118 0)
(9.92246 -0.0337142 0)
(9.91066 -0.0333182 0)
(9.89913 -0.0329237 0)
(9.8879 -0.0325291 0)
(9.87698 -0.0321296 0)
(9.86639 -0.0317145 0)
(9.85615 -0.0312547 0)
(9.84628 -0.0306821 0)
(9.83632 -0.0296088 0)
(9.89298 -0.0248102 0)
(9.80362 -0.0270332 0)
(9.69968 -0.0264232 0)
(9.59721 -0.0262502 0)
(9.50135 -0.0260319 0)
(9.41117 -0.0256584 0)
(9.3258 -0.0252221 0)
(9.24499 -0.0247768 0)
(9.16858 -0.0243352 0)
(9.09635 -0.0238989 0)
(9.02806 -0.0234687 0)
(8.96349 -0.0230446 0)
(8.90245 -0.0226258 0)
(8.84475 -0.0222105 0)
(8.79023 -0.0217939 0)
(8.73875 -0.0213606 0)
(8.69038 -0.0208638 0)
(8.64369 -0.0199418 0)
(0.023604 -0.080343 0)
(0.0416734 -0.046824 0)
(0.0278769 0.011891 0)
(-0.0274427 0.0745469 0)
(-0.104434 0.108989 0)
(-0.194827 0.12549 0)
(-0.293673 0.13384 -4.51332e-20)
(-0.398345 0.138336 3.87217e-20)
(-0.507575 0.14082 0)
(-0.620112 0.142125 3.06786e-20)
(-0.735175 0.142614 0)
(-0.852131 0.142487 0)
(-0.970458 0.141884 0)
(-1.08972 0.140909 -2.30471e-20)
(-1.20957 0.139648 0)
(-1.3297 0.138168 0)
(-1.44987 0.136527 2.04957e-20)
(-1.56989 0.134771 0)
(-1.68961 0.132937 0)
(-1.80889 0.131057 0)
(-1.92765 0.129154 -1.8914e-20)
(-2.04581 0.127247 0)
(-2.16331 0.125351 -1.85558e-20)
(-2.28013 0.123474 0)
(-2.39622 0.121624 0)
(-2.51157 0.119802 -1.83345e-20)
(-2.62616 0.118009 0)
(-2.73998 0.116242 1.83291e-20)
(-2.853 0.114496 0)
(-2.96522 0.112762 -1.83995e-20)
(-3.07659 0.111032 0)
(-3.1871 0.109296 0)
(-3.2967 0.10754 0)
(-3.40533 0.105751 0)
(-3.51292 0.103913 0)
(-3.6194 0.102011 1.88505e-20)
(-3.72466 0.100025 0)
(-3.82858 0.0979351 -3.80516e-20)
(-3.93102 0.0957205 0)
(-4.03181 0.0933578 3.83784e-20)
(-4.13077 0.0908222 0)
(-4.22767 0.088087 0)
(-4.32227 0.0851241 -3.87591e-20)
(-4.41427 0.0819034 0)
(-4.50335 0.0783932 -3.88924e-20)
(-4.58917 0.0745602 3.89092e-20)
(-4.67132 0.07037 0)
(-4.74934 0.0657875 3.88174e-20)
(-4.82276 0.0607778 3.86974e-20)
(-4.89104 0.0553073 0)
(-4.9536 0.0493449 0)
(-5.00981 0.0428637 0)
(-5.059 0.0358426 0)
(-5.10047 0.0282685 0)
(-5.13351 0.0201371 -3.65248e-20)
(-5.15742 0.0114519 0)
(-5.17145 0.00223137 3.50708e-20)
(-5.17472 -0.00746187 0)
(-5.16663 -0.0175549 0)
(-5.14661 -0.0279667 -3.17892e-20)
(-5.11419 -0.0386041 0)
(-5.06904 -0.0493573 2.88662e-20)
(-5.01095 -0.060112 0)
(-4.93987 -0.0707524 0)
(-4.8559 -0.0811647 0)
(-4.75929 -0.09124 -2.11109e-20)
(-4.65042 -0.100877 0)
(-4.52982 -0.109982 0)
(-4.39814 -0.118478 -1.35392e-20)
(-4.25614 -0.126295 0)
(-4.10468 -0.133384 -7.6389e-21)
(-3.94468 -0.139705 0)
(-3.77712 -0.145235 0)
(-3.60302 -0.149964 0)
(-3.42341 -0.153895 -6.23136e-21)
(-3.23931 -0.157044 0)
(-3.05175 -0.159434 0)
(-2.86171 -0.161099 -1.85087e-20)
(-2.67013 -0.162075 -2.29813e-20)
(-2.47789 -0.162406 0)
(-2.28583 -0.162139 -3.25413e-20)
(-2.0947 -0.161322 0)
(-1.90522 -0.16 -8.59763e-20)
(-1.718 -0.158216 0)
(-1.53361 -0.15601 -1.08838e-19)
(-1.35255 -0.153413 0)
(-1.17525 -0.150451 1.33883e-19)
(-1.0021 -0.147135 0)
(-0.833432 -0.143454 0)
(-0.66953 -0.139419 0)
(-0.51066 -0.135059 -1.91572e-19)
(-0.357114 -0.130753 0)
(-0.209048 -0.127353 2.27126e-19)
(-0.0666061 -0.12447 0)
(0.0761669 -0.120041 -2.57576e-19)
(0.209011 -0.114097 -2.52071e-19)
(0.337483 -0.107965 -2.47424e-19)
(0.460474 -0.10192 0)
(0.577906 -0.0960241 0)
(0.689891 -0.0903231 0)
(0.796582 -0.0848515 0)
(0.898143 -0.0796286 0)
(0.994743 -0.074662 0)
(1.08656 -0.0699528 0)
(1.17375 -0.0654977 0)
(1.25651 -0.0612904 2.13736e-19)
(1.335 -0.0573226 2.10939e-19)
(1.40939 -0.0535845 0)
(1.47984 -0.0500659 0)
(1.54653 -0.0467561 0)
(1.6096 -0.043645 2.01603e-19)
(1.66922 -0.0407221 0)
(1.72553 -0.0379779 0)
(1.77869 -0.035403 0)
(1.82884 -0.0329885 0)
(1.87613 -0.0307258 -1.93504e-19)
(1.92069 -0.0286065 0)
(1.96265 -0.0266228 0)
(2.00214 -0.0247668 1.90163e-19)
(2.03929 -0.0230311 -1.8926e-19)
(2.07421 -0.0214088 0)
(2.10702 -0.0198931 -1.87731e-19)
(2.13783 -0.0184774 0)
(2.16674 -0.0171557 1.86536e-19)
(2.19386 -0.0159223 0)
(2.21928 -0.0147718 0)
(2.2431 -0.0136991 0)
(2.2654 -0.0126994 0)
(2.28627 -0.0117681 0)
(2.30579 -0.0109009 -3.69114e-19)
(2.32405 -0.0100937 -3.68835e-19)
(2.3411 -0.00934276 0)
(2.35703 -0.0086444 0)
(2.37191 -0.00799534 0)
(2.38578 -0.00739247 3.68552e-19)
(2.39873 -0.0068327 0)
(2.41079 -0.00631311 0)
(2.42204 -0.00583098 0)
(2.43252 -0.00538386 3.69329e-19)
(2.44228 -0.00496956 -3.69651e-19)
(2.45137 -0.00458607 0)
(2.45983 -0.00423142 0)
(2.46772 -0.00390377 -3.70857e-19)
(2.47506 -0.0036014 -3.71326e-19)
(2.4819 -0.00332277 0)
(2.48829 -0.00306633 0)
(2.49425 -0.00283063 3.72887e-19)
(2.49981 -0.00261444 -3.73448e-19)
(2.50502 -0.00241676 0)
(2.50991 -0.00223662 0)
(2.5145 -0.00207314 -3.75211e-19)
(2.51882 -0.00192644 0)
(2.52292 -0.00179565 0)
(2.52682 -0.00167831 -3.76999e-19)
(2.53054 -0.00157283 0)
(2.5341 -0.00147839 -3.78186e-19)
(2.53753 -0.00139416 0)
(2.54085 -0.0013196 0)
(2.54409 -0.00125463 0)
(2.54726 -0.00119839 3.80523e-19)
(2.55037 -0.00114975 0)
(2.55346 -0.00110804 0)
(2.55653 -0.00107166 0)
(2.55959 -0.00103909 0)
(2.56265 -0.00100978 0)
(2.56572 -0.000981186 0)
(2.56877 -0.000949151 3.84282e-19)
(2.57181 -0.000910322 3.84789e-19)
(2.57479 -0.000858505 0)
(2.57765 -0.00078559 0)
(2.58029 -0.000680319 0)
(2.58258 -0.00052296 -3.87017e-19)
(2.58427 -0.000284932 0)
(2.58501 8.29116e-05 7.77274e-19)
(2.58419 0.000662707 -7.7961e-19)
(2.5808 0.00162521 -7.82859e-19)
(2.57306 0.00331436 7.877e-19)
(2.55671 0.00667367 -7.95565e-19)
(2.52662 0.0141735 8.09513e-19)
(2.42487 0.0375424 0)
(-0.0314735 -0.0509114 0)
(-0.0787729 0.0628587 0)
(-0.145138 0.148798 8.58025e-20)
(-0.219765 0.210538 0)
(-0.299248 0.252761 -5.56306e-20)
(-0.385059 0.281209 -4.81466e-20)
(-0.477353 0.300679 -2.1248e-20)
(-0.575234 0.314355 -1.92866e-20)
(-0.677577 0.323991 0)
(-0.783361 0.330611 -1.63222e-20)
(-0.891749 0.33489 0)
(-1.00206 0.337306 0)
(-1.11374 0.338221 2.73135e-20)
(-1.22634 0.337922 1.31695e-20)
(-1.3395 0.336645 -2.52671e-20)
(-1.45291 0.334584 -2.45206e-20)
(-1.56634 0.331902 -1.20482e-20)
(-1.6796 0.328733 0)
(-1.79253 0.325193 0)
(-1.90502 0.321373 0)
(-2.01697 0.317352 -1.11483e-20)
(-2.12832 0.313191 0)
(-2.23899 0.308937 3.34412e-20)
(-2.34896 0.304627 0)
(-2.45819 0.300288 0)
(-2.56665 0.295936 1.11685e-20)
(-2.6743 0.291581 0)
(-2.78113 0.287224 -1.12017e-20)
(-2.88711 0.282861 -2.22114e-20)
(-2.9922 0.278482 1.12707e-20)
(-3.09636 0.274072 0)
(-3.19955 0.269612 0)
(-3.30171 0.265078 0)
(-3.40278 0.260444 -2.2677e-20)
(-3.50266 0.255679 -2.27843e-20)
(-3.60127 0.250749 -1.15683e-20)
(-3.69849 0.245616 0)
(-3.7942 0.24024 2.33235e-20)
(-3.88824 0.234576 0)
(-3.98044 0.228577 -2.34701e-20)
(-4.07062 0.222191 0)
(-4.15856 0.215364 0)
(-4.24401 0.208037 2.35669e-20)
(-4.3267 0.200148 0)
(-4.40632 0.191632 7.02377e-20)
(-4.48254 0.18242 -2.34459e-20)
(-4.55499 0.17244 0)
(-4.62326 0.16162 -2.32029e-20)
(-4.6869 0.149886 -2.30234e-20)
(-4.74544 0.137168 0)
(-4.79834 0.123399 0)
(-4.84506 0.10852 0)
(-4.88499 0.0924842 0)
(-4.91751 0.0752596 0)
(-4.94198 0.0568307 2.09488e-20)
(-4.95778 0.0371955 4.12215e-20)
(-4.96422 0.0163707 -1.98217e-20)
(-4.96045 -0.00555219 0)
(-4.9461 -0.0283587 3.73704e-20)
(-4.92057 -0.0518188 -1.82911e-20)
(-4.88338 -0.0756948 0)
(-4.8342 -0.099727 -1.55789e-20)
(-4.77279 -0.123642 0)
(-4.69906 -0.14716 0)
(-4.61305 -0.170008 -2.57148e-20)
(-4.51496 -0.191923 1.09156e-20)
(-4.40513 -0.212663 -2.07229e-20)
(-4.28402 -0.232011 1.80367e-20)
(-4.15224 -0.249782 6.7441e-21)
(-4.0105 -0.265824 0)
(-3.85962 -0.280025 3.69979e-21)
(-3.70049 -0.292309 0)
(-3.53404 -0.302639 0)
(-3.36128 -0.311012 0)
(-3.18321 -0.317456 -6.59133e-22)
(-3.00083 -0.32203 0)
(-2.81514 -0.324817 -1.01936e-20)
(-2.6271 -0.325919 2.15249e-20)
(-2.43763 -0.325452 9.65405e-21)
(-2.24761 -0.323545 0)
(-2.05784 -0.320331 1.30928e-20)
(-1.86909 -0.315952 0)
(-1.68203 -0.310544 3.30467e-20)
(-1.49726 -0.304242 0)
(-1.31535 -0.297175 3.98849e-20)
(-1.13675 -0.289459 -8.20454e-20)
(-0.961872 -0.281207 -4.67235e-20)
(-0.79103 -0.272522 0)
(-0.624472 -0.263498 0)
(-0.462342 -0.25429 0)
(-0.304732 -0.245022 6.06718e-20)
(-0.151504 -0.236084 0)
(-0.00212517 -0.2275 -6.70887e-20)
(0.14189 -0.218801 0)
(0.280161 -0.209098 2.03859e-19)
(0.412248 -0.198554 6.98003e-20)
(0.53887 -0.188185 7.04346e-20)
(0.660019 -0.178085 0)
(0.775795 -0.168329 0)
(0.886329 -0.158949 0)
(0.991763 -0.149963 0)
(1.09225 -0.141372 0)
(1.18794 -0.133176 1.45349e-19)
(1.279 -0.125365 1.46567e-19)
(1.36558 -0.117932 0)
(1.44785 -0.110866 -7.54183e-20)
(1.52597 -0.104154 -7.59792e-20)
(1.6001 -0.0977867 0)
(1.67039 -0.0917504 -1.52773e-19)
(1.73702 -0.0860333 0)
(1.80013 -0.0806234 7.70323e-20)
(1.85988 -0.0755084 0)
(1.91641 -0.0706764 0)
(1.96986 -0.0661155 -1.59413e-19)
(2.02039 -0.0618139 0)
(2.06813 -0.05776 8.15688e-20)
(2.11321 -0.0539426 0)
(2.15576 -0.0503505 0)
(2.19591 -0.0469732 8.29184e-20)
(2.23378 -0.0438001 8.43784e-20)
(2.26948 -0.0408212 0)
(2.30313 -0.0380266 -8.52452e-20)
(2.33484 -0.0354068 0)
(2.36471 -0.0329525 8.68202e-20)
(2.39283 -0.0306548 1.75705e-19)
(2.41931 -0.0285053 0)
(2.44424 -0.0264958 0)
(2.4677 -0.0246183 0)
(2.48977 -0.0228654 0)
(2.51053 -0.0212298 1.83838e-19)
(2.53007 -0.0197048 5.55498e-19)
(2.54846 -0.018284 0)
(2.56575 -0.0169613 0)
(2.58202 -0.0157309 0)
(2.59734 -0.0145874 -1.91462e-19)
(2.61175 -0.0135255 0)
(2.62532 -0.01254 0)
(2.63811 -0.0116262 3.91479e-19)
(2.65016 -0.01078 1.97037e-19)
(2.66152 -0.00999745 1.98834e-19)
(2.67224 -0.00927467 0)
(2.68236 -0.00860808 0)
(2.69193 -0.00799428 2.03059e-19)
(2.70099 -0.00743012 -2.04175e-19)
(2.70958 -0.00691262 0)
(2.71773 -0.00643896 0)
(2.72548 -0.0060065 -2.08401e-19)
(2.73287 -0.00561293 6.28837e-19)
(2.73992 -0.00525625 0)
(2.74667 -0.00493446 0)
(2.75315 -0.0046456 2.13366e-19)
(2.75938 -0.00438885 0)
(2.76539 -0.00416263 4.31243e-19)
(2.77122 -0.00396382 -2.16679e-19)
(2.77688 -0.00379023 0)
(2.7824 -0.00364077 2.19012e-19)
(2.78783 -0.00351396 4.39983e-19)
(2.79317 -0.0034078 0)
(2.79845 -0.0033212 0)
(2.80369 -0.00325267 -2.23054e-19)
(2.80892 -0.00320007 0)
(2.81415 -0.00316147 4.49768e-19)
(2.81939 -0.00313377 0)
(2.82466 -0.00311336 0)
(2.82996 -0.0030973 0)
(2.83531 -0.00308001 0)
(2.84068 -0.00305256 -2.29328e-19)
(2.84608 -0.00300536 -2.30165e-19)
(2.85145 -0.00292366 0)
(2.85675 -0.00278627 0)
(2.86188 -0.00256335 0)
(2.86671 -0.00220715 2.33569e-19)
(2.87099 -0.00164506 0)
(2.87441 -0.000755383 -4.71092e-19)
(2.87638 0.000668092 4.73505e-19)
(2.876 0.00302577 4.76505e-19)
(2.87177 0.00710629 4.80324e-19)
(2.86044 0.0148128 4.86779e-19)
(2.84033 0.0307687 4.95935e-19)
(2.78486 0.0699205 0)
(-0.0688446 0.116648 0)
(-0.129166 0.231611 0)
(-0.20917 0.316216 -5.56454e-20)
(-0.293701 0.382234 -4.46459e-20)
(-0.378914 0.432733 3.81854e-20)
(-0.466321 0.470554 3.37269e-20)
(-0.556795 0.498492 -2.34317e-22)
(-0.650263 0.518859 0)
(-0.74633 0.533356 0)
(-0.844538 0.543227 0)
(-0.944446 0.549406 0)
(-1.04566 0.552613 0)
(-1.14782 0.553423 -6.30982e-20)
(-1.25065 0.552302 0)
(-1.3539 0.549634 1.95525e-20)
(-1.45736 0.545737 1.90785e-20)
(-1.56087 0.540874 0)
(-1.66429 0.535266 0)
(-1.76752 0.529091 0)
(-1.87046 0.522496 0)
(-1.97305 0.5156 1.78725e-20)
(-2.07523 0.508497 0)
(-2.17696 0.501258 -1.77457e-20)
(-2.27818 0.493936 0)
(-2.37887 0.486567 0)
(-2.479 0.479173 0)
(-2.57852 0.471764 -3.57434e-20)
(-2.67741 0.464339 0)
(-2.77564 0.456887 1.79796e-20)
(-2.87315 0.449388 -3.6179e-20)
(-2.9699 0.441817 0)
(-3.06583 0.434141 0)
(-3.16088 0.426319 0)
(-3.25497 0.418307 1.84855e-20)
(-3.34801 0.410055 1.85905e-20)
(-3.4399 0.401507 0)
(-3.53052 0.392604 0)
(-3.61974 0.383281 -3.77568e-20)
(-3.7074 0.373466 -3.79151e-20)
(-3.79333 0.363087 3.80497e-20)
(-3.87734 0.352062 0)
(-3.9592 0.340307 0)
(-4.03868 0.327733 0)
(-4.1155 0.314245 0)
(-4.18938 0.299744 -3.81049e-20)
(-4.25997 0.284126 -3.80922e-20)
(-4.32691 0.267286 3.79255e-20)
(-4.38981 0.249116 0)
(-4.44824 0.229507 0)
(-4.50173 0.208358 0)
(-4.54978 0.185571 0)
(-4.59184 0.161062 -3.60634e-20)
(-4.62734 0.134765 0)
(-4.65568 0.106638 0)
(-4.67624 0.0766647 -3.39992e-20)
(-4.68843 0.0448624 -3.26496e-20)
(-4.69155 0.0112838 0)
(-4.68495 -0.02391 6.20685e-20)
(-4.66812 -0.0604458 -2.91463e-20)
(-4.6405 -0.0980108 2.77574e-20)
(-4.60163 -0.136237 0)
(-4.55116 -0.174715 0)
(-4.48885 -0.213008 0)
(-4.41459 -0.250665 0)
(-4.32841 -0.287238 1.94403e-20)
(-4.2305 -0.322294 3.69082e-20)
(-4.12117 -0.355432 1.55094e-20)
(-4.00089 -0.386287 -1.34302e-20)
(-3.87025 -0.41455 0)
(-3.72996 -0.439965 2.02831e-20)
(-3.58084 -0.462344 1.58228e-20)
(-3.42377 -0.481562 1.12783e-20)
(-3.2597 -0.497557 -6.67043e-21)
(-3.0896 -0.510327 0)
(-2.91448 -0.519924 5.14333e-21)
(-2.73532 -0.526449 0)
(-2.55312 -0.530045 -4.79597e-21)
(-2.36879 -0.530886 -9.50365e-21)
(-2.18326 -0.529172 0)
(-1.99735 -0.525118 0)
(-1.81185 -0.518953 -3.01256e-20)
(-1.6275 -0.510913 0)
(-1.44492 -0.501232 -3.87693e-20)
(-1.26469 -0.490137 0)
(-1.08733 -0.477851 4.70788e-20)
(-0.913265 -0.464581 1.04632e-19)
(-0.742847 -0.450535 0)
(-0.576356 -0.435918 0)
(-0.413995 -0.420931 0)
(-0.2559 -0.405901 6.65709e-20)
(-0.102257 -0.390911 0)
(0.0475848 -0.375823 7.31069e-20)
(0.191217 -0.360506 0)
(0.329104 -0.344784 0)
(0.461332 -0.328668 -1.57281e-19)
(0.588102 -0.31247 0)
(0.709645 -0.296554 -8.02992e-20)
(0.826023 -0.281065 0)
(0.937335 -0.266086 -8.26751e-20)
(1.04369 -0.251657 0)
(1.14521 -0.237799 0)
(1.24202 -0.224519 0)
(1.33426 -0.211815 -2.62319e-19)
(1.42207 -0.199681 -8.9219e-20)
(1.5056 -0.188108 0)
(1.58501 -0.177082 0)
(1.66043 -0.16659 0)
(1.73202 -0.156617 0)
(1.79993 -0.147148 9.41444e-20)
(1.86432 -0.138167 -1.8876e-19)
(1.92532 -0.129657 -9.61821e-20)
(1.9831 -0.121601 1.9308e-19)
(2.03778 -0.113981 1.95279e-19)
(2.08951 -0.106782 9.93517e-20)
(2.13842 -0.0999841 0)
(2.18465 -0.0935718 2.02044e-19)
(2.22833 -0.0875278 0)
(2.26959 -0.0818355 -2.06693e-19)
(2.30853 -0.0764787 -1.04957e-19)
(2.34529 -0.0714416 0)
(2.37996 -0.0667087 2.13854e-19)
(2.41267 -0.062265 1.08491e-19)
(2.44351 -0.0580959 0)
(2.47259 -0.0541872 1.1029e-19)
(2.49999 -0.0505252 -3.3578e-19)
(2.52582 -0.0470967 0)
(2.55016 -0.043889 0)
(2.57309 -0.0408898 0)
(2.5947 -0.0380875 0)
(2.61506 -0.0354709 -2.361e-19)
(2.63425 -0.0330295 -2.38957e-19)
(2.65233 -0.0307532 0)
(2.66938 -0.0286325 0)
(2.68545 -0.0266583 0)
(2.70061 -0.0248221 0)
(2.71491 -0.0231155 0)
(2.72841 -0.0215309 0)
(2.74117 -0.0200608 -2.55746e-19)
(2.75322 -0.0186987 -2.21499e-22)
(2.76463 -0.0174383 0)
(2.77543 -0.0162734 0)
(2.78567 -0.0151984 -2.64627e-19)
(2.7954 -0.014208 0)
(2.80464 -0.0132972 2.69145e-19)
(2.81344 -0.0124612 2.71103e-19)
(2.82184 -0.0116958 0)
(2.82986 -0.0109967 0)
(2.83755 -0.0103602 -2.77361e-19)
(2.84493 -0.00978296 -5.58385e-19)
(2.85204 -0.00926181 0)
(2.8589 -0.00879352 0)
(2.86555 -0.00837502 0)
(2.872 -0.00800409 -2.86741e-19)
(2.8783 -0.0076786 2.88504e-19)
(2.88445 -0.00739587 0)
(2.8905 -0.00715372 5.83659e-19)
(2.89645 -0.00694949 2.93387e-19)
(2.90235 -0.00678004 -5.90179e-19)
(2.9082 -0.00664298 0)
(2.91404 -0.00653592 0)
(2.91988 -0.00645541 -5.99413e-19)
(2.92575 -0.00639791 -3.01262e-19)
(2.93165 -0.00635905 0)
(2.93759 -0.00633289 0)
(2.9436 -0.00631312 0)
(2.94967 -0.00629128 0)
(2.95579 -0.0062543 -6.16391e-19)
(2.96196 -0.00618574 0)
(2.96813 -0.00606244 0)
(2.97427 -0.00584985 0)
(2.98027 -0.00549923 0)
(2.98603 -0.00493665 0)
(2.99134 -0.0040479 0)
(2.9959 -0.00264641 -6.36939e-19)
(2.99925 -0.000419693 0)
(3.00069 0.00320154 0)
(2.99921 0.00928399 -1.30674e-18)
(2.99286 0.0200984 6.64011e-19)
(2.98247 0.0403514 -6.8158e-19)
(2.95591 0.0814208 7.09479e-19)
(-0.0740408 0.300376 0)
(-0.14098 0.420766 1.24823e-19)
(-0.22629 0.500405 0)
(-0.315231 0.563423 3.50338e-20)
(-0.402526 0.613534 0)
(-0.489372 0.652686 0)
(-0.57679 0.682649 -2.52511e-20)
(-0.665096 0.705014 0)
(-0.754333 0.721129 0)
(-0.844442 0.732106 0)
(-0.93531 0.73886 0)
(-1.02681 0.742151 0)
(-1.1188 0.74261 7.07145e-20)
(-1.21117 0.74077 3.4613e-20)
(-1.3038 0.737076 -3.37305e-20)
(-1.3966 0.731903 0)
(-1.48947 0.725565 0)
(-1.58236 0.71832 0)
(-1.67518 0.710383 0)
(-1.7679 0.701928 0)
(-1.86047 0.693096 3.12644e-20)
(-1.95283 0.683995 3.11692e-20)
(-2.04497 0.674708 -3.11339e-20)
(-2.13684 0.665298 3.11506e-20)
(-2.22842 0.655804 0)
(-2.31967 0.64625 0)
(-2.41056 0.636644 3.11617e-20)
(-2.50105 0.626982 0)
(-2.5911 0.617245 0)
(-2.68068 0.607408 3.17533e-20)
(-2.76973 0.597432 3.22113e-20)
(-2.85819 0.587273 3.24396e-20)
(-2.94599 0.576876 0)
(-3.03305 0.566182 0)
(-3.11929 0.555122 -3.31499e-20)
(-3.2046 0.543622 0)
(-3.28886 0.5316 0)
(-3.37195 0.51897 3.36012e-20)
(-3.4537 0.505636 -3.4234e-20)
(-3.53395 0.491499 3.44156e-20)
(-3.61251 0.47645 0)
(-3.68916 0.460375 0)
(-3.76367 0.443153 6.90678e-20)
(-3.83577 0.424657 0)
(-3.90516 0.404752 6.91539e-20)
(-3.97153 0.383298 1.03255e-19)
(-4.03451 0.360151 -1.02918e-19)
(-4.09373 0.335166 6.85169e-20)
(-4.14874 0.308196 0)
(-4.19909 0.279099 0)
(-4.24427 0.247744 6.67306e-20)
(-4.28375 0.214014 3.2429e-20)
(-4.31695 0.177818 0)
(-4.34326 0.139095 0)
(-4.36205 0.0978264 3.05161e-20)
(-4.37274 0.0540397 6.06819e-20)
(-4.37458 0.00782159 0)
(-4.36696 -0.0406262 -5.54137e-20)
(-4.3493 -0.0909558 5.44655e-20)
(-4.32105 -0.142743 -5.1985e-20)
(-4.28174 -0.195487 0)
(-4.231 -0.248627 0)
(-4.16859 -0.30156 0)
(-4.09441 -0.353658 0)
(-4.00849 -0.404291 0)
(-3.91103 -0.452847 -3.22519e-20)
(-3.80237 -0.498752 0)
(-3.68301 -0.541489 0)
(-3.55356 -0.580611 0)
(-3.41478 -0.615755 -3.65145e-20)
(-3.2675 -0.646648 -1.3616e-20)
(-3.11264 -0.673115 -9.67198e-21)
(-2.95116 -0.695071 1.28437e-20)
(-2.78404 -0.712516 -3.14917e-21)
(-2.6123 -0.725526 -2.24786e-21)
(-2.43692 -0.734247 0)
(-2.25885 -0.738884 1.00729e-20)
(-2.07903 -0.739687 0)
(-1.89831 -0.736941 0)
(-1.7175 -0.73095 0)
(-1.53737 -0.722035 4.83777e-20)
(-1.35857 -0.710535 -2.69808e-20)