/*--------------------------------*- C++ -*----------------------------------*\
| =========                 |                                                 |
| \\      /  F ield         | OpenFOAM: The Open Source CFD Toolbox           |
|  \\    /   O peration     | Version:  1.4.2                                 |
|   \\  /    A nd           | Web:      http://www.openfoam.org               |
|    \\/     M anipulation  |                                                 |
\*---------------------------------------------------------------------------*/
FoamFile
{
    version     2.0;
    format      ascii;
    class       volScalarField;
    object      epsilon;
    location    "50";
}
// * * * * * * * * * * * * * * * * * * * * * * * * * * * * * * * * * * * * * //

dimensions      [0 2 -3 0 0 0 0];

internalField   nonuniform List<scalar> 
12225
(
11598.2
30302.4
46146.7
57515.2
65400
70770.1
74168
75876.4
76120.6
75124.2
73133.5
70408.5
67198.8
63720.2
60143
56601.6
53174.3
50311.6
3108.88
8452.81
13837.9
18274.8
21645.7
24076.1
25724.5
26688.9
27070
26968.6
26483.4
25707.6
24725.6
23610.4
22421.8
21205.4
19989.1
18807.6
1811.28
4472.98
7352.78
9929.13
12011.3
13577.9
14675.3
15357.9
15693.1
15748.9
15584.9
15250.3
14787.1
14231.5
13614.7
12962
12288.4
11604.2
1374.95
2988.95
4782.51
6466.11
7879.16
8968.73
9743.25
10239
10507.5
10599.4
10553.8
10398.3
10154.6
9842.31
9479.4
9081.4
8657.06
8208.32
1152.89
2225.68
3425.04
4583.32
5576.47
6350.15
6901.4
7257.64
7460.19
7547.26
7544.88
7468.93
7331.2
7142.8
6914.57
6656.03
6372.14
6061.73
1008.76
1757.68
2589.64
3405.98
4112
4661.32
5049.32
5298.17
5440.78
5505.79
5511.15
5466.97
5380.4
5258.15
5106.63
4931.29
4734.52
4513.61
899.457
1436.05
2024.83
2605.43
3106.6
3492.19
3759.06
3925.45
4016.82
4054.56
4051.97
4016.65
3953.64
3867.1
3760.59
3636.73
3496
3334.77
822.171
1233.81
1679.92
2118.04
2492.71
2776.22
2967.18
3080.74
3136.85
3152.27
3138.11
3101.16
3045.66
2974.55
2889.88
2792.74
2682.44
2554.86
760.435
1086.45
1434.74
1773.93
2060.62
2273.89
2413.37
2491.24
2522.95
2521.93
2497.99
2457.56
2404.6
2341.43
2269.29
2188.37
2097.31
1992.04
700.283
955.365
1223.02
1480.07
1694.02
1850.07
1948.41
1998.27
2011.06
1997.28
1965.45
1921.59
1869.47
1811.13
1747.34
1677.82
1600.91
1512.92
642.37
839.359
1041.77
1232.26
1387.69
1498.41
1564.98
1594.07
1593.84
1572.22
1536.18
1491.05
1440.31
1385.81
1328.17
1266.93
1200.49
1125.78
587.967
738.124
888.95
1027.09
1137.05
1213.16
1256.23
1270.96
1263.08
1238.33
1202.05
1158.59
1110.93
1060.74
1008.57
954.048
895.827
831.58
538.717
652.3
763.52
862.053
938.171
989.016
1015.54
1021.11
1009.68
985.286
951.766
912.371
869.456
824.407
777.742
729.215
677.848
622.011
496.182
583.451
665.548
735.65
787.934
821.344
836.94
837.165
824.816
802.671
773.344
739.09
701.606
661.949
620.561
577.326
531.604
482.31
462.437
533.825
596.188
647.459
684.283
706.658
715.716
713.323
701.495
682.148
657.016
627.585
594.994
559.992
522.932
483.784
442.164
397.329
441.408
506.527
557.742
598.428
626.823
643.511
649.669
646.802
636.416
619.857
598.285
572.669
543.759
512.068
477.857
441.131
401.641
358.786
439.478
506.446
554.375
591.999
618.49
634.652
641.658
640.812
633.324
620.192
602.207
579.991
554.008
524.563
491.791
455.638
415.846
371.784
462.638
538.818
591.695
634.659
666.926
689.113
702.318
707.786
706.606
699.565
687.167
669.704
647.318
620.023
587.709
550.127
506.856
457.134
505.402
598.205
665.15
723.193
770.609
807.424
834.524
853.062
863.98
867.804
864.678
854.487
836.968
811.792
778.588
736.932
686.292
625.917
556.584
674.841
766.544
851.069
925.045
987.4
1038.36
1078.56
1108.49
1128.21
1137.46
1135.76
1122.61
1097.62
1060.53
1011.13
949.212
874.402
608.768
764.542
894.993
1020.85
1136.56
1238.95
1326.57
1398.78
1455.15
1495.21
1518.44
1524.41
1512.97
1484.34
1439.07
1377.8
1301.07
1209.31
656.39
865.08
1052.39
1239.05
1416.34
1577.24
1717.14
1833.17
1923.66
1987.76
2025.22
2036.47
2022.65
1985.54
1927.35
1850.2
1755.89
1645.53
695.552
975.918
1243.8
1517.29
1782.14
2024.93
2236.08
2409.62
2542.6
2634.23
2685.45
2698.64
2677.38
2626.15
2549.62
2452.28
2337.54
2207.05
724.072
1099.38
1480.33
1876.63
2263.86
2618.63
2924.46
3171.84
3356.88
3479.87
3544.14
3555.27
3520.52
3448.16
3346.45
3222.96
3083.21
2929.58
742.04
1243.8
1785.37
2356.82
2915.1
3421.99
3852.37
4193.46
4441.8
4600.44
4676.77
4681.11
4625.63
4523.39
4387.17
4228.07
4054.3
3869.62
753.332
1430.8
2209.31
3037.92
3839.97
4555.75
5150.56
5610.33
5934.97
6133.21
6219.03
6209.46
6123.02
5978.49
5793.6
5583.27
5358.7
5126.08
770.318
1715.6
2870.87
4100.48
5266.84
6279.82
7096.88
7708.31
8123.57
8362.27
8449.03
8410.45
8273.36
8063.43
7804.28
7514.77
7209.42
6898.34
832.886
2264.79
4110.16
6042.18
7807.97
9278.27
10414
11225.3
11744.7
12013.2
12073.4
11966.6
11731.5
11403.1
11013.4
10586
10139
9688.58
1138.74
3822.54
7340.21
10828.5
13803.5
16114.5
17779.9
18879.6
19505.9
19746.8
19680.9
19377.3
18896.1
18288.7
17601.9
16867.4
16107.8
15347
3937.88
13543
24992.2
34879.4
42265.6
47335.9
50539.8
52297.8
52944.5
52740.9
51894.4
50572.8
48913.8
47031.4
45021.8
42935.1
40811.6
38694.4
26.9877
42.0462
57.828
72.6708
86.624
99.8894
112.591
124.814
136.624
148.072
159.203
170.05
180.644
191.01
201.171
211.146
220.951
230.6
240.102
249.464
258.689
267.778
276.733
285.552
294.243
302.819
311.311
319.071
325.922
331.769
336.534
340.151
342.576
343.786
343.779
342.575
340.21
336.74
332.231
326.763
320.425
313.312
305.526
297.173
288.359
279.189
269.759
260.159
250.467
240.748
231.057
221.443
211.958
202.665
193.636
184.99
176.73
168.842
161.465
154.784
149.441
144.973
140.865
136.99
133.312
129.816
126.497
123.353
120.38
117.574
114.933
112.454
110.132
107.964
105.943
104.064
102.319
100.702
99.2046
97.8195
96.5393
95.3567
94.2653
93.2585
92.3304
91.475
90.6866
89.9598
89.2898
88.6726
88.1046
87.5828
87.1045
86.6676
86.2711
85.9141
85.5967
85.3188
85.0811
84.8847
84.7308
84.6211
84.557
84.5404
84.5728
84.6559
84.7913
84.9803
85.2244
85.5292
85.8932
86.3154
86.7947
87.33
87.9202
88.5642
89.2611
90.0098
90.8089
91.6567
92.5508
93.4871
94.461
95.4649
96.4881
97.5186
98.543
99.5473
100.517
101.439
102.3
103.088
103.797
104.42
104.956
105.406
105.774
106.066
106.289
106.452
106.565
106.636
106.675
106.689
106.687
106.675
106.659
106.645
106.638
106.641
106.66
106.697
106.756
106.841
106.953
107.096
107.271
107.481
107.725
108.006
108.324
108.678
109.067
109.49
109.942
110.418
110.913
111.416
111.918
112.404
112.856
113.253
113.577
113.803
113.902
113.832
113.533
112.906
111.786
109.438
61.6237
51.5866
62.0654
73.0557
82.6166
90.7205
97.5203
103.178
107.844
111.654
114.728
117.179
119.11
120.615
121.779
122.681
123.388
123.964
124.465
124.944
125.449
126.03
126.732
127.595
128.661
129.963
131.534
133.171
134.722
136.121
137.316
138.262
138.923
139.273
139.293
138.97
138.296
137.275
135.926
134.272
132.342
130.166
127.777
125.207
122.488
119.648
116.714
113.71
110.657
107.575
104.476
101.372
98.2661
95.1576
92.0485
88.9469
85.8308
82.5777
79.4386
76.4823
73.7775
71.302
68.9958
66.8251
64.7712
62.8234
60.9745
59.2194
57.5543
55.9755
54.48
53.0649
51.7274
50.465
49.275
48.155
47.1028
46.1169
45.1957
44.336
43.5344
42.7873
42.0909
41.4419
40.8368
40.2727
39.7469
39.2569
38.8005
38.3757
37.981
37.6151
37.2768
36.9654
36.68
36.4202
36.1858
35.9767
35.7931
35.6351
35.5031
35.3977
35.3195
35.2694
35.2482
35.2564
35.2947
35.3637
35.4636
35.6006
35.7712
35.9729
36.2037
36.4613
36.7438
37.0494
37.3763
37.7229
38.0875
38.4686
38.8643
39.2719
39.6886
40.1106
40.5358
40.9581
41.3687
41.7588
42.1195
42.4421
42.7202
42.9484
43.1218
43.2375
43.2937
43.2904
43.2292
43.1128
42.9449
42.7299
42.4729
42.179
41.8537
41.5023
41.1297
40.7409
40.3403
39.9324
39.5213
39.111
38.7049
38.3064
37.9185
37.5441
37.1857
36.8458
36.5263
36.2289
35.9552
35.7063
35.4831
35.2861
35.1156
34.9713
34.8524
34.7577
34.6855
34.6335
34.5991
34.5797
34.5741
34.5903
34.6342
34.7027
34.7996
34.9402
35.1633
35.5658
36.4122
38.5904
72.5181
54.3047
60.7062
69.0962
76.6715
83.0017
88.075
91.9861
94.8662
96.8586
98.072
98.6465
98.7272
98.4531
97.9522
97.3394
96.7161
96.1553
95.6977
95.385
95.2509
95.3242
95.628
96.1789
96.9867
98.0514
99.3584
100.821
102.295
103.685
104.916
105.934
106.704
107.206
107.435
107.393
107.01
106.275
105.206
103.83
102.186
100.312
98.2511
96.0401
93.714
91.3033
88.8337
86.3269
83.8005
81.267
78.7324
76.195
73.6498
71.0896
68.4883
65.8646
63.3209
60.8561
58.5151
56.3168
54.2602
52.3331
50.5179
48.8002
47.1699
45.6205
44.1474
42.7471
41.4171
40.1552
38.9594
37.8279
36.759
35.751
34.8024
33.9117
33.0784
32.304
31.5916
30.9357
30.3325
29.7785
29.2688
28.7994
28.3666
27.9672
27.5986
27.2584
26.9445
26.6555
26.3898
26.1466
25.925
25.7245
25.545
25.3863
25.2486
25.1324
25.0381
24.9663
24.918
24.8938
24.8949
24.922
24.9761
25.0579
25.168
25.3069
25.4749
25.6737
25.9044
26.1647
26.452
26.7638
27.0978
27.4515
27.8222
28.2076
28.6049
29.0112
29.4229
29.8362
30.2464
30.6484
31.0366
31.4044
31.7454
32.053
32.3218
32.5469
32.7225
32.8449
32.9116
32.9218
32.876
32.7758
32.6241
32.4246
32.1816
31.8999
31.5846
31.2406
30.8731
30.4869
30.0866
29.6767
29.2614
28.8444
28.4295
28.0198
27.6185
27.228
26.8509
26.4893
26.1451
25.8199
25.5152
25.2323
24.972
24.7352
24.5222
24.3331
24.1674
24.0245
23.903
23.8015
23.7179
23.6498
23.5946
23.5498
23.5138
23.4899
23.4755
23.4681
23.4677
23.479
23.5169
23.6196
23.8908
24.6041
88.6444
58.0238
60.2995
66.3419
72.504
77.943
82.455
86.0496
88.7282
90.5616
91.6602
92.1621
92.2166
91.9706
91.5602
91.1046
90.7036
90.4371
90.3681
90.5349
90.922
91.5326
92.371
93.44
94.7411
96.2766
98.0467
100.044
102.09
104.006
105.657
106.962
107.871
108.358
108.42
108.07
107.233
105.906
104.128
101.958
99.4682
96.7284
93.8073
90.7661
87.6573
84.524
81.4003
78.3118
75.2751
72.2967
69.376
66.5041
63.6675
60.8823
58.228
55.7077
53.3295
51.0899
48.9881
47.0194
45.1747
43.4428
41.8122
40.2733
38.8183
37.4414
36.1382
34.9053
33.7399
32.64
31.6035
30.6286
29.7137
28.8572
28.0576
27.3134
26.6236
25.9873
25.4039
24.8724
24.393
23.965
23.5811
23.2356
22.9241
22.6431
22.3897
22.1615
21.9566
21.7734
21.6108
21.4681
21.3446
21.2403
21.1552
21.0897
21.0444
21.0201
21.0178
21.0384
21.0832
21.1532
21.2494
21.3726
21.5236
21.7029
21.9108
22.1475
22.4129
22.7087
23.0329
23.3831
23.7567
24.151
24.563
24.9899
25.4285
25.8756
26.3276
26.7807
27.2305
27.672
28.0999
28.5081
28.8905
29.2407
29.5524
29.8202
30.0392
30.2058
30.3177
30.3737
30.3734
30.3175
30.2084
30.0492
29.8439
29.5973
29.3144
29.0003
28.6604
28.2999
27.9235
27.536
27.1417
26.7447
26.3488
25.9572
25.5731
25.1991
24.8374
24.49
24.1585
23.8441
23.5479
23.2709
23.0138
22.7773
22.562
22.3684
22.1966
22.0467
21.9181
21.8097
21.7201
21.6471
21.5879
21.5396
21.4992
21.4637
21.4313
21.4003
21.3673
21.3293
21.2847
21.2338
21.1804
21.1359
21.1367
21.2725
112.649
65.4761
63.3949
67.1667
72.0516
76.7992
81.0218
84.6264
87.5378
89.7822
91.4396
92.6205
93.4504
94.057
94.5615
95.0726
95.6831
96.4682
97.4865
98.7839
100.334
102.113
104.109
106.308
108.698
111.269
114.02
116.953
119.917
122.658
124.974
126.72
127.791
128.123
127.695
126.54
124.609
121.93
118.595
114.726
110.455
105.91
101.208
96.4502
91.7196
87.0812
82.5829
78.2546
74.1107
70.1486
66.3699
62.7534
59.4012
56.3012
53.4413
50.8019
48.3639
46.1086
44.0194
42.0805
40.2769
38.5948
37.0219
35.5478
34.1641
32.8641
31.6422
30.4943
29.417
28.4072
27.4626
26.5809
25.7602
24.9983
24.2936
23.6443
23.0488
22.5056
22.0135
21.5713
21.1785
20.8344
20.5322
20.2665
20.033
19.8283
19.6496
19.4947
19.3617
19.2493
19.1565
19.0825
19.0272
18.9905
18.9728
18.9749
18.9976
19.0422
19.11
19.2024
19.3209
19.4667
19.6408
19.8441
20.077
20.3397
20.6322
20.9543
21.306
21.6864
22.0926
22.5219
22.971
23.4369
23.9162
24.4053
24.9007
25.3985
25.8943
26.3837
26.8616
27.3226
27.7607
28.1698
28.5435
28.8759
29.1613
29.3949
29.573
29.6932
29.7547
29.7581
29.7053
29.5987
29.4418
29.239
28.9952
28.7157
28.406
28.0718
27.7183
27.3507
26.9738
26.5921
26.2095
25.8297
25.456
25.0912
24.7377
24.3976
24.0726
23.7644
23.4742
23.2032
22.9522
22.7217
22.5123
22.3245
22.1584
22.0146
21.8929
21.793
21.714
21.6544
21.612
21.5836
21.5659
21.5549
21.5467
21.5375
21.5242
21.5025
21.4679
21.4161
21.3431
21.2455
21.1206
20.9698
20.8144
20.718
146.403
77.9864
71.0374
72.465
76.0495
80.0971
84.0412
87.6898
90.9345
93.7779
96.2759
98.51
100.573
102.558
104.559
106.657
108.928
111.433
114.221
117.332
120.78
124.509
128.478
132.655
137.009
141.509
146.127
150.823
155.386
159.482
162.84
165.217
166.415
166.313
164.883
162.195
158.256
153.175
147.149
140.406
133.178
125.684
118.114
110.626
103.348
96.372
89.7594
83.5353
77.722
72.282
67.3326
62.8626
58.8391
55.2164
51.9498
48.9974
46.321
43.8868
41.6651
39.6299
37.7588
36.0322
34.4338
32.9499
31.5693
30.2831
29.084
27.966
26.9245
25.9554
25.0555
24.2216
23.4511
22.7416
22.0907
21.4962
20.9561
20.4686
20.0319
19.6448
19.3064
19.0128
18.7585
18.5389
18.3504
18.1899
18.055
17.9436
17.854
17.7849
17.7355
17.7052
17.6938
17.7014
17.7287
17.7764
17.8458
17.9383
18.0557
18.1996
18.3717
18.5735
18.806
19.0702
19.3662
19.694
20.0532
20.4432
20.8633
21.3108
21.7824
22.2745
22.7836
23.3059
23.8374
24.3742
24.9119
25.4458
25.9713
26.4834
26.9766
27.4453
27.8835
28.2853
28.6447
28.9561
29.2146
29.4162
29.5583
29.6396
29.6605
29.6228
29.5299
29.3856
29.1945
28.9616
28.6924
28.3927
28.0684
27.7249
27.3679
27.0021
26.6324
26.2629
25.8974
25.5391
25.191
24.8558
24.5357
24.2325
23.9475
23.6818
23.436
23.2108
23.0066
22.824
22.6633
22.5253
22.4105
22.3192
22.2516
22.207
22.1841
22.1808
22.1938
22.219
22.2518
22.2869
22.319
22.3434
22.3548
22.3476
22.3165
22.2563
22.162
22.0284
21.8501
21.6223
21.3535
21.1254
191.156
96.0951
83.4155
82.2264
84.3786
87.6517
91.2782
94.9669
98.5874
102.134
105.651
109.204
112.859
116.682
120.733
125.068
129.737
134.782
140.24
146.139
152.499
159.265
166.355
173.701
181.24
188.905
196.628
204.314
211.601
217.949
222.915
226.111
227.241
226.154
222.858
217.52
210.244
201.294
191.033
179.855
168.144
156.243
144.449
132.995
122.065
111.764
102.179
93.3003
85.2574
78.086
71.7271
66.103
61.1329
56.7385
52.8464
49.3901
46.3103
43.5548
41.0785
38.8428
36.8146
34.9663
33.2746
31.7207
30.2889
28.9668
27.7443
26.6133
25.5671
24.6003
23.7083
22.8871
22.1332
21.4434
20.8148
20.2446
19.7303
19.2698
18.861
18.5026
18.1912
17.9218
17.6899
17.4919
17.3247
17.1855
17.0721
16.9825
16.9154
16.8693
16.8436
16.8375
16.851
16.8843
16.9381
17.0135
17.1118
17.2348
17.3844
17.5628
17.7716
18.0126
18.2871
18.5955
18.9383
19.315
19.7251
20.1676
20.6407
21.1407
21.6638
22.2055
22.7613
23.3269
23.8974
24.4681
25.0338
25.5895
26.1302
26.6506
27.1457
27.6101
28.0382
28.4247
28.764
29.0515
29.2829
29.4552
29.5667
29.6169
29.6071
29.54
29.4196
29.2509
29.0391
28.7898
28.5087
28.2018
27.875
27.5339
27.1838
26.8297
26.4759
26.1264
25.7847
25.4539
25.1366
24.8351
24.5513
24.2864
24.0414
23.8168
23.6131
23.4307
23.2699
23.1315
23.0163
22.9253
22.8593
22.8191
22.8047
22.8152
22.849
22.9029
22.9727
23.0531
23.1379
23.2204
23.2938
23.3518
23.3877
23.3949
23.3676
23.3003
23.1878
23.0248
22.8059
22.5268
22.198
21.8958
246.976
119.717
100.236
96.0271
96.5555
98.9659
102.248
106.011
110.092
114.475
119.201
124.327
129.909
135.995
142.625
149.837
157.661
166.124
175.248
185.06
195.545
206.607
218.147
230.067
242.261
254.612
266.974
279.137
290.438
300.057
307.292
311.549
312.419
309.736
303.589
294.305
282.143
267.596
251.278
233.829
215.848
197.853
180.292
163.457
147.632
132.874
119.429
107.431
96.8108
87.4682
79.284
72.1341
65.8966
60.4559
55.7054
51.5484
47.8993
44.6833
41.8354
39.3004
37.0317
34.9901
33.1435
31.4653
29.9341
28.5327
27.2472
26.0665
24.9816
23.9852
23.0712
22.2345
21.4704
20.7749
20.1444
19.5757
19.0657
18.6118
18.2118
17.8618
17.557
17.2931
17.0663
16.8735
16.7117
16.5785
16.4717
16.3894
16.33
16.2924
16.2755
16.2787
16.302
16.3454
16.4099
16.4965
16.6068
16.743
16.9073
17.1022
17.33
17.5929
17.8924
18.2295
18.6043
19.0163
19.4643
19.947
20.4617
21.0047
21.5713
22.1554
22.751
23.352
23.9526
24.5468
25.1287
25.6929
26.2346
26.7495
27.2332
27.6812
28.0892
28.4525
28.7667
29.028
29.2329
29.3792
29.4659
29.4932
29.463
29.3782
29.2433
29.0636
28.8448
28.5926
28.3128
28.0115
27.6943
27.3669
27.0342
26.7009
26.3713
26.0489
25.737
25.438
25.1543
24.8876
24.6392
24.4101
24.2011
24.0125
23.8448
23.6983
23.5739
23.4728
23.3963
23.346
23.3231
23.3286
23.3626
23.424
23.5103
23.6177
23.7407
23.8727
24.0059
24.1322
24.2432
24.3311
24.3879
24.4066
24.381
24.3061
24.1773
23.9906
23.7427
23.4347
23.088
22.7494
312.232
148.173
120.919
113.299
112.013
113.48
116.41
120.297
124.946
130.311
136.423
143.333
151.093
159.747
169.334
179.885
191.44
204.017
217.595
232.143
247.606
263.895
280.909
298.534
316.633
335.028
353.452
371.483
388.072
402.111
412.561
418.533
419.425
415.015
405.463
391.289
372.93
351.202
327.079
301.551
275.537
249.733
224.873
201.169
179.276
159.489
141.796
126.127
112.354
100.32
89.854
80.7847
72.9438
66.1723
60.3237
55.2655
50.8797
47.0634
43.7276
40.7962
38.2052
35.9012
33.8402
31.9861
30.31
28.7886
27.4032
26.1391
24.9846
23.93
22.9676
22.0908
21.2938
20.5718
19.9203
19.3354
18.8136
18.3517
17.9443
17.5867
17.2745
17.004
16.7716
16.5741
16.4088
16.2731
16.1646
16.0813
16.0216
15.9839
15.9672
15.9707
15.994
16.0373
16.1011
16.1866
16.2954
16.4299
16.5925
16.7863
17.0143
17.2793
17.5839
17.9296
18.3173
18.7467
19.2169
19.7263
20.2718
20.8493
21.4541
22.077
22.7092
23.3428
23.9698
24.5819
25.1717
25.7337
26.2643
26.7609
27.221
27.6419
28.0206
28.3539
28.6386
28.8717
29.0508
29.1745
29.2421
29.2543
29.2131
29.1217
28.9845
28.8065
28.5936
28.3514
28.0856
27.8017
27.5054
27.2018
26.8956
26.5912
26.2922
26.0019
25.723
25.4577
25.2077
24.9742
24.7582
24.5604
24.3812
24.2211
24.0808
23.9611
23.8637
23.7904
23.7434
23.7249
23.7368
23.7801
23.855
23.9602
24.0922
24.2461
24.4155
24.5925
24.7681
24.9326
25.0762
25.1893
25.2631
25.2905
25.2654
25.1834
25.0415
24.8382
24.5744
24.2595
23.9116
23.5581
382.983
180.265
144.763
133.468
130.194
130.625
133.184
137.23
142.507
148.936
156.524
165.309
175.336
186.648
199.277
213.245
228.562
245.219
263.181
282.393
302.789
324.291
346.821
370.29
394.581
419.492
444.62
469.224
492.069
511.855
527.125
536.496
538.932
533.949
521.664
502.737
477.755
447.985
414.888
379.898
344.506
309.322
276.033
245.181
217.025
191.668
169.073
149.122
131.64
116.422
103.246
91.887
82.1254
73.7533
66.5787
60.4276
55.145
50.595
46.6598
43.239
40.2477
37.6151
35.283
33.2038
31.3392
29.6586
28.1379
26.758
25.5039
24.3636
23.3274
22.3873
21.5362
20.7685
20.0785
19.4625
18.9139
18.4272
17.9975
17.6201
17.2909
17.0059
16.7615
16.5543
16.3812
16.2393
16.126
16.0389
15.9761
15.9358
15.9165
15.9173
15.9374
15.9767
16.0354
16.1144
16.2153
16.34
16.4914
16.6724
16.8867
17.1378
17.4293
17.7639
18.1439
18.5703
19.0433
19.5619
20.123
20.7207
21.3477
21.9952
22.6542
23.3147
23.964
24.5902
25.1827
25.7348
26.2446
26.7127
27.1396
27.5249
27.8675
28.1657
28.4177
28.6216
28.7759
28.8797
28.9329
28.9365
28.8924
28.8036
28.6741
28.5086
28.3126
28.0914
27.8503
27.5943
27.3284
27.0572
26.785
26.5155
26.252
25.9971
25.7531
25.5217
25.3042
25.1015
24.9142
24.7431
24.5884
24.451
24.3317
24.2319
24.1534
24.0986
24.0701
24.0708
24.1032
24.1692
24.2695
24.4029
24.566
24.7536
24.9585
25.1717
25.3827
25.58
25.7521
25.8878
25.9778
26.0144
25.9921
25.9078
25.7616
25.5554
25.293
24.9822
24.6374
24.2808
453.565
215.34
171.423
156.087
150.52
149.703
151.757
155.877
161.711
169.115
178.049
188.516
200.538
214.13
229.3
246.039
264.319
284.088
305.272
327.786
351.549
376.501
402.622
429.928
458.462
488.213
518.86
549.416
579.03
606.472
629.7
646.302
654.18
652.107
639.894
618.191
587.72
550.356
508.218
463.025
417.98
374.315
333.041
294.78
259.864
228.417
200.409
175.701
154.082
135.3
119.078
105.136
93.199
83.0076
74.3202
66.9177
60.6043
55.2078
50.5786
46.5886
43.1295
40.1107
37.4575
35.1091
33.0164
31.1406
29.451
27.9239
26.541
25.2877
24.1523
23.1254
22.1985
21.3658
20.6187
19.9505
19.3553
18.8274
18.3619
17.9541
17.5993
17.2934
17.0321
16.8116
16.6283
16.4787
16.3597
16.2685
16.2026
16.1599
16.1385
16.1369
16.1542
16.1898
16.2436
16.3162
16.4086
16.5227
16.6609
16.8262
17.022
17.2522
17.5208
17.8314
18.1875
18.5915
19.045
19.5482
20.0996
20.6936
21.3222
21.9762
22.6447
23.3156
23.9744
24.6057
25.1945
25.7303
26.2124
26.6455
27.0334
27.3785
27.6814
27.9423
28.1605
28.3353
28.4661
28.5526
28.5952
28.5949
28.5536
28.474
28.3597
28.2147
28.0437
27.8518
27.6435
27.4232
27.1951
26.9631
26.7307
26.5011
26.2769
26.0602
25.8528
25.6559
25.4704
25.297
25.1363
24.9886
24.8545
24.7348
24.6307
24.5436
24.4759
24.4304
24.4101
24.4187
24.4595
24.5351
24.6469
24.7945
24.9752
25.1837
25.4121
25.6503
25.8865
26.108
26.3019
26.4565
26.5617
26.61
26.5962
26.5179
26.3757
26.1729
25.9155
25.6119
25.2746
24.9212
636.549
266.721
203.085
181.039
172.242
169.701
170.916
174.821
180.92
188.971
198.857
210.516
223.903
238.972
255.663
273.896
293.56
314.509
336.567
359.545
383.27
407.621
432.577
458.286
485.197
514.183
546.008
580.018
616.703
655.228
692.438
723.557
744.147
751.431
744.512
724.191
691.092
647.991
598.966
546.793
493.976
442.352
393.241
347.511
305.662
267.912
234.265
204.581
178.619
156.082
136.642
119.962
105.713
93.5813
83.2748
74.5282
67.1039
60.7919
55.4094
50.7994
46.8284
43.3847
40.3758
37.7263
35.3755
33.2755
31.3889
29.6869
28.148
26.7555
25.4958
24.3587
23.3323
22.4074
21.5763
20.8325
20.17
19.5832
19.0669
18.616
18.2253
17.89
17.6054
17.3667
17.1695
17.0096
16.8832
16.7868
16.7172
16.6716
16.6478
16.6438
16.6582
16.6902
16.7393
16.8059
16.8909
16.9957
17.1224
17.2738
17.4528
17.6629
17.9079
18.1914
18.517
18.8877
19.3061
19.7736
20.2903
20.8533
21.4557
22.0883
22.74
23.3976
24.0459
24.6668
25.2402
25.7514
26.2011
26.5966
26.9442
27.2482
27.5115
27.7356
27.9212
28.0687
28.1781
28.25
28.2849
28.2841
28.2494
28.1831
28.0883
27.9686
27.8277
27.67
27.4996
27.32
27.1344
26.9461
26.7577
26.5716
26.3897
26.2137
26.0445
25.8832
25.7302
25.586
25.4508
25.3251
25.2093
25.1044
25.0115
24.9326
24.87
24.827
24.8071
24.8145
24.8532
24.9266
25.037
25.185
25.3683
25.5824
25.8193
26.0687
26.3184
26.5547
26.7641
26.934
27.0537
27.1153
27.1133
27.0456
26.9131
26.7195
26.4712
26.1769
25.8477
25.4977
763.132
314.582
234.515
205.987
193.736
189.152
189.184
192.515
198.49
206.747
217.059
229.258
243.198
258.729
275.685
293.867
313.032
332.878
353.047
373.135
392.715
411.374
428.775
444.849
460.2
477.016
500.256
533.38
578.426
634.084
694.705
750.577
793.309
817.931
822.487
808.532
778.441
735.499
683.639
626.566
567.462
508.835
452.522
399.757
351.281
307.449
268.33
233.799
203.597
177.387
154.793
135.427
118.903
104.858
92.9521
82.8745
74.3472
67.1242
60.9904
55.7601
51.2753
47.4031
44.0329
41.0746
38.4556
36.1184
34.0189
32.1236
30.4082
28.8553
27.4484
26.1723
25.0157
23.9698
23.0273
22.1821
21.4286
20.7612
20.1746
19.6632
19.2214
18.8437
18.5244
18.258
18.0391
17.8625
17.7232
17.6168
17.5392
17.487
17.457
17.4469
17.4549
17.4799
17.5212
17.5791
17.6544
17.7484
17.8632
18.0011
18.1646
18.3566
18.5802
18.838
19.1331
19.4679
19.8449
20.2658
20.7316
21.2421
21.7931
22.377
22.9836
23.6001
24.211
24.7979
25.3407
25.8219
26.2376
26.5954
26.9039
27.1693
27.3958
27.5862
27.7424
27.8655
27.9565
28.0163
28.046
28.0468
28.0206
27.9695
27.8959
27.803
27.6938
27.5718
27.4407
27.3031
27.1616
27.0182
26.875
26.7335
26.595
26.4604
26.3303
26.205
26.0848
25.9696
25.8597
25.7552
25.6566
25.5649
25.4812
25.4076
25.3467
25.3017
25.2768
25.2762
25.3046
25.3662
25.4641
25.6
25.7728
25.9788
26.2111
26.4596
26.7122
26.9551
27.1742
27.356
27.489
27.5643
27.5758
27.5209
27.4002
27.2175
26.9788
26.6926
26.369
26.0199
842.084
352.248
261.849
228.548
213.298
206.704
205.43
207.973
213.533
221.614
231.862
243.988
257.727
272.811
288.952
305.828
323.056
340.187
356.684
371.919
385.151
395.52
402.145
404.458
402.719
398.659
398.564
424.94
480.569
558.357
649.446
736.304
806.081
852.123
872.765
870.249
847.592
807.998
755.959
696.062
632.36
568.117
505.756
446.931
392.663
343.473
299.515
260.691
226.731
197.27
171.887
150.146
131.615
115.882
102.565
91.3138
81.8151
73.7906
66.9966
61.2222
56.287
52.0386
48.3499
45.1168
42.2551
39.6983
37.3955
35.3089
33.4117
31.6862
30.1119
28.674
27.3619
26.1679
25.0859
24.111
23.2382
22.4629
21.7796
21.183
20.6671
20.2257
19.8527
19.5414
19.2856
19.0787
18.9146
18.7876
18.6923
18.6241
18.5792
18.5545
18.5477
18.5574
18.583
18.6247
18.6833
18.7602
18.8573
18.9767
19.1208
19.2917
19.4916
19.7224
19.9859
20.2836
20.6171
20.9875
21.3959
21.8423
22.3263
22.8428
23.3832
23.9362
24.4873
25.0194
25.5137
25.9543
26.3344
26.6577
26.9316
27.1634
27.3582
27.5198
27.6511
27.7539
27.8297
27.8799
27.906
27.9093
27.8916
27.8548
27.8011
27.733
27.6531
27.5644
27.4696
27.3709
27.27
27.1682
27.0669
26.9669
26.8688
26.7729
26.6794
26.5881
26.4987
26.4109
26.3248
26.2402
26.1576
26.0778
26.002
25.9323
25.8713
25.8223
25.7894
25.7773
25.7909
25.8348
25.9133
26.0286
26.1813
26.3689
26.5856
26.8227
27.0687
27.3101
27.5323
27.7215
27.8649
27.9527
27.9776
27.9361
27.8281
27.6566
27.4273
27.1479
26.8276
26.477
874.371
379.454
283.968
247.655
230.285
222.169
219.823
221.621
226.656
234.326
244.177
255.815
268.871
282.977
297.743
312.751
327.528
341.538
354.166
364.688
372.242
375.841
374.575
368.136
357.317
344.494
336.601
357.607
417.167
507.31
612.607
716.878
805.742
869.554
904.816
912.991
897.663
861.975
810.821
749.444
682.622
614.269
547.333
483.858
425.121
371.797
324.12
282.015
245.205
213.296
185.828
162.326
142.316
125.349
111.007
98.9117
88.7206
80.1315
72.879
66.7329
61.4952
56.9982
53.1011
49.6877
46.6638
43.9546
41.5026
39.2652
37.2125
35.3265
33.5886
31.9849
30.5061
29.1463
27.9016
26.7692
25.7464
24.8298
24.0157
23.2992
22.6752
22.1375
21.6797
21.2949
20.9758
20.715
20.5048
20.338
20.2076
20.1076
20.033
19.9796
19.9446
19.9262
19.9236
19.9369
19.967
20.0153
20.0835
20.1738
20.288
20.428
20.5952
20.7909
21.0159
21.2709
21.5566
21.8733
22.2215
22.6013
23.0121
23.4526
23.9163
24.3938
24.8726
25.3375
25.7726
26.1642
26.5048
26.7946
27.0385
27.2423
27.4114
27.55
27.6613
27.7477
27.8111
27.8534
27.8761
27.8808
27.8692
27.8431
27.8045
27.7554
27.6981
27.635
27.5684
27.4998
27.4302
27.3607
27.2919
27.2242
27.1579
27.0926
27.0282
26.964
26.8994
26.834
26.7671
26.6988
26.6292
26.5589
26.4893
26.422
26.3599
26.306
26.2645
26.24
26.2375
26.2623
26.3188
26.4105
26.5388
26.7026
26.8978
27.117
27.3497
27.5831
27.8031
27.9952
28.146
28.2443
28.2819
28.2538
28.1588
27.9989
27.779
27.5059
27.188
26.8349
859.905
396.665
301.322
263.902
245.676
236.859
233.901
235.15
239.666
246.805
256.055
266.956
279.068
291.954
305.158
318.206
330.586
341.748
351.09
357.944
361.574
361.243
356.501
347.743
336.809
327.88
330.05
359.173
423.371
516.928
624.923
732.054
824.853
893.354
933.113
944.788
931.814
897.07
845.448
782.429
713.141
641.864
571.854
505.381
443.869
388.07
338.247
294.317
255.98
222.805
194.299
169.949
149.254
131.735
116.955
104.515
94.0589
85.27
77.8721
71.6243
66.3193
61.7801
57.8574
54.4267
51.3864
48.6549
46.1688
43.8806
41.7563
39.7738
37.921
36.187
34.5641
33.0485
31.6388
30.3356
29.1393
28.05
27.0667
26.1875
25.4094
24.7283
24.139
23.6356
23.2109
22.857
22.5655
22.3274
22.134
21.9775
21.8508
21.7485
21.6666
21.6025
21.555
21.5238
21.5096
21.5136
21.5375
21.583
21.6518
21.7454
21.865
22.0114
22.1852
22.3864
22.6154
22.872
23.1562
23.4677
23.8058
24.1686
24.5535
24.9528
25.3561
25.7507
26.1235
26.4631
26.7622
27.0191
27.2358
27.4162
27.5645
27.6846
27.7797
27.8523
27.9047
27.9388
27.9562
27.9587
27.9478
27.9254
27.8932
27.853
27.8068
27.7566
27.7042
27.6507
27.597
27.5439
27.4918
27.441
27.3914
27.3427
27.2943
27.2453
27.195
27.1424
27.0868
27.0279
26.9656
26.9004
26.8334
26.7661
26.7012
26.6416
26.5914
26.5551
26.5379
26.5449
26.581
26.6501
26.7547
26.8947
27.0673
27.2666
27.4834
27.7059
27.9205
28.1128
28.2688
28.3766
28.4264
28.4121
28.3312
28.1843
27.9752
27.71
27.3961
27.0425
804.564
402.94
314.458
278.509
260.814
252.159
249.117
250.1
254.202
260.791
269.346
279.387
290.445
302.052
313.732
324.996
335.348
344.281
351.288
355.859
357.513
355.908
351.168
344.479
338.919
340.493
361.773
413.47
496.574
599.126
705.169
802.896
883.529
940.298
970.139
973.956
954.566
914.619
858.738
792.213
720.064
646.512
574.768
507.047
444.71
388.437
338.414
294.49
256.303
223.371
195.163
171.136
150.769
133.574
119.105
106.96
96.7833
88.2605
81.1163
75.1115
70.0396
65.7233
62.0121
58.7794
55.9205
53.3504
51.0018
48.823
46.7763
44.8359
42.986
41.2182
39.5317
37.9254
36.3986
34.9545
33.5975
32.3304
31.1568
30.0795
29.1003
28.22
27.4381
26.7524
26.1589
25.6516
25.2228
24.863
24.5621
24.31
24.0975
23.9168
23.7618
23.6285
23.5143
23.4182
23.3401
23.2807
23.2412
23.2229
23.2271
23.2553
23.3085
23.3876
23.4931
23.6255
23.7848
23.9712
24.1845
24.424
24.6887
24.9765
25.2842
25.6076
25.9381
26.2652
26.578
26.8671
27.1257
27.3505
27.5415
27.7006
27.8305
27.9341
28.0141
28.073
28.1128
28.1354
28.1425
28.1359
28.1171
28.0876
28.0492
28.0035
27.9523
27.8975
27.8404
27.7821
27.7237
27.6662
27.6102
27.5562
27.5042
27.4539
27.4047
27.3556
27.3057
27.2537
27.1988
27.1402
27.0776
27.0111
26.9416
26.8706
26.8002
26.7335
26.6742
26.6268
26.5963
26.5879
26.6065
26.6563
26.7403
26.8593
27.0115
27.1921
27.3934
27.6045
27.8128
28.0041
28.1644
28.2811
28.3435
28.3442
28.2793
28.1482
27.9535
27.7003
27.395
27.0463
720.344
398.458
323.651
292.442
277.046
269.66
267.295
268.552
272.621
278.93
286.991
296.337
306.509
317.048
327.497
337.402
346.327
353.868
359.671
363.465
365.12
364.808
363.448
363.565
370.72
396.768
452.723
541.013
649.46
758.372
853.351
928.708
982.028
1011.48
1017.09
1001.31
965.76
913.321
848.352
775.678
699.798
624.425
552.309
485.266
424.319
369.877
321.916
280.13
244.045
213.11
186.748
164.398
145.532
129.667
116.369
105.253
95.9808
88.2546
81.8166
76.4427
71.9393
68.1395
64.9011
62.1032
59.6448
57.4425
55.4291
53.5519
51.7713
50.0588
48.3954
46.77
45.1776
43.6176
42.0926
40.6094
39.1763
37.7942
36.4686
35.2068
34.0162
32.9038
31.8772
30.9428
30.1043
29.3628
28.7157
28.1571
27.6778
27.2671
26.9137
26.6072
26.3385
26.1008
25.8891
25.7004