/*--------------------------------*- C++ -*----------------------------------*\
| =========                 |                                                 |
| \\      /  F ield         | OpenFOAM: The Open Source CFD Toolbox           |
|  \\    /   O peration     | Version:  1.4.2                                 |
|   \\  /    A nd           | Web:      http://www.openfoam.org               |
|    \\/     M anipulation  |                                                 |
\*---------------------------------------------------------------------------*/
FoamFile
{
    version     2.0;
    format      ascii;
    class       volScalarField;
    object      k;
    location    "50";
}
// * * * * * * * * * * * * * * * * * * * * * * * * * * * * * * * * * * * * * //

dimensions      [0 2 -2 0 0 0 0];

internalField   nonuniform List<scalar> 
12225
(
2.72968
5.20502
6.90934
8.01638
8.74378
9.22441
9.52543
9.67969
9.70984
9.6352
9.47511
9.2493
8.97674
8.67426
8.35569
8.03264
7.71237
7.44076
4.78888
8.39354
10.7892
12.419
13.5445
14.3055
14.7684
14.9787
14.9729
14.787
14.458
14.0232
13.5166
12.9665
12.3948
11.8182
11.2474
10.6941
6.42041
10.3626
12.9776
14.8171
16.1183
17.0026
17.533
17.7586
17.7243
17.4763
17.0618
16.5263
15.9097
15.2449
14.5564
13.8617
13.1716
12.491
7.85845
11.8448
14.5222
16.4652
17.864
18.8161
19.3784
19.6026
19.5408
19.2474
18.7767
18.1785
17.4954
16.7614
16.0016
15.2335
14.4673
13.7033
9.22218
13.1014
15.7605
17.7485
19.1996
20.1862
20.7583
20.9705
20.8822
20.5548
20.0468
19.4097
18.6859
17.9085
17.1023
16.284
15.463
14.6382
10.5435
14.2281
16.8259
18.8211
20.2926
21.289
21.8542
22.0467
21.9331
21.5804
21.0485
20.3879
19.6389
18.8331
17.9943
17.1384
16.2739
15.3993
11.821
15.2715
17.7843
19.7598
21.2269
22.2127
22.7571
22.9235
22.7853
22.4126
21.8647
21.189
20.4233
19.597
18.7327
17.8456
16.9434
16.0252
12.8499
16.095
18.5272
20.4707
21.9173
22.8804
23.3989
23.5409
23.3838
22.9986
22.4424
21.7595
20.9847
20.1458
19.264
18.3539
17.4231
16.471
13.6717
16.7426
19.1048
21.0135
22.4351
23.3753
23.8737
24.0014
23.8373
23.4513
22.8978
22.218
21.4442
20.6021
19.7118
18.7872
17.8356
16.8576
14.4607
17.3583
19.6496
21.5151
22.9032
23.8161
24.2957
24.4143
24.2501
23.8705
23.3267
22.6567
21.8902
21.0505
20.1562
19.2203
18.2502
17.2472
15.2098
17.9444
20.1678
21.9831
23.3292
24.21
24.6703
24.7824
24.6212
24.2506
23.7186
23.0605
22.303
21.4673
20.5701
19.6235
18.6347
17.6061
15.9058
18.5009
20.6624
22.4218
23.718
24.562
25.0021
25.1083
24.9511
24.5895
24.0684
23.4206
22.6706
21.8374
20.9359
19.9771
18.9679
17.9119
16.534
19.0281
21.1336
22.8316
24.0715
24.8753
25.2944
25.3956
25.2428
24.8898
24.378
23.738
22.9927
22.1591
21.2507
20.2774
19.246
18.1606
17.088
19.5307
21.5773
23.2071
24.3867
25.1496
25.5493
25.6475
25.5014
25.1583
24.656
24.0229
23.2803
22.4442
21.5265
20.5365
19.4805
18.363
17.5742
20.0082
21.9803
23.5351
24.6545
25.3804
25.7657
25.8661
25.7316
25.4034
24.9143
24.2904
23.5513
22.7118
21.783
20.7731
19.688
18.5316
17.9792
20.4279
22.3109
23.7907
24.8583
25.5574
25.9376
26.0487
25.934
25.6283
25.1596
24.5499
23.8166
22.9728
22.0285
20.9909
19.865
18.6525
18.2385
20.7137
22.5134
23.9351
24.9715
25.6621
26.0517
26.1844
26.098
25.8217
25.3781
24.7846
24.0553
23.2009
22.2298
21.148
19.9588
18.6599
18.2142
20.7416
22.5025
23.9095
24.9515
25.6608
26.0775
26.2411
26.1848
25.9339
25.5072
24.9189
24.1804
23.3011
22.2885
21.1478
19.8814
18.4845
17.8018
20.4423
22.2364
23.6835
24.7711
25.5261
25.9849
26.1833
26.1516
25.9138
25.4881
24.889
24.1291
23.2195
22.1702
20.9898
19.6838
18.2526
17.0164
19.8482
21.7428
23.2729
24.4351
25.2542
25.7642
25.9988
25.9876
25.7558
25.3244
24.7115
23.9341
23.0087
21.9511
20.7758
19.4951
18.1179
15.9044
18.9977
21.0481
22.6915
23.9468
24.8412
25.4079
25.6804
25.6904
25.4661
25.0331
24.4155
23.6364
22.7186
21.6843
20.5537
19.3433
18.0659
14.5371
17.928
20.1756
21.9521
23.3104
24.2842
24.9092
25.2218
25.2566
25.0466
24.6229
24.0151
23.2526
22.3635
21.3746
20.3094
19.1858
18.0153
12.9935
16.6757
19.1445
21.0645
22.5269
23.5777
24.2591
24.6119
24.6759
24.4886
24.0862
23.5032
22.7731
21.9279
20.9968
20.0043
18.9678
17.897
11.347
15.2785
17.9709
20.0331
21.592
22.7107
23.4412
23.8315
23.9268
23.7693
23.3987
22.8532
22.1685
21.378
20.5113
19.5924
18.6379
17.6561
9.65932
13.7719
16.665
18.8539
20.4917
21.6617
22.4288
22.8496
22.9748
22.8505
22.5193
22.0207
21.3911
20.6633
19.8655
19.0204
18.1437
17.2436
7.97969
12.1819
15.2263
17.5085
19.196
20.3927
21.1778
21.6171
21.7664
21.675
21.3866
20.9407
20.3727
19.7136
18.9894
18.2208
17.4228
16.6047
6.34457
10.5148
13.6307
15.9506
17.6438
18.8326
19.6102
20.0507
20.2143
20.1516
19.9062
19.5161
19.0146
18.43
17.7855
17.0997
16.3868
15.6579
4.77054
8.73249
11.7958
14.0653
15.6985
16.8304
17.5657
17.9842
18.1485
18.1084
17.9055
17.5749
17.1464
16.6451
16.0909
15.4997
14.8842
14.2571
3.20914
6.65481
9.45184
11.52
12.9847
13.983
14.6238
14.9881
15.136
15.1135
14.9572
14.697
14.3577
13.9601
13.5199
13.0493
12.5586
12.0596
1.66061
3.79273
5.72971
7.18035
8.18384
8.84578
9.25819
9.48768
9.58062
9.57
9.48038
9.33083
9.13662
8.9103
8.66279
8.40062
8.12837
7.8514
0.114326
0.160483
0.197665
0.229564
0.257598
0.282866
0.306016
0.32747
0.34753
0.366422
0.384318
0.401356
0.417646
0.433277
0.448325
0.46285
0.476903
0.490525
0.503747
0.516595
0.529085
0.541229
0.553038
0.56452
0.575687
0.586564
0.597198
0.607062
0.615734
0.623115
0.629123
0.633691
0.636773
0.638343
0.638396
0.636951
0.634043
0.629724
0.624064
0.617144
0.609056
0.5999
0.589783
0.578818
0.567119
0.554805
0.54199
0.528784
0.515287
0.501583
0.487744
0.473833
0.459908
0.446036
0.432321
0.418889
0.40588
0.393266
0.381137
0.369737
0.359451
0.351259
0.344036
0.337277
0.330844
0.324693
0.318811
0.313192
0.307833
0.302729
0.29788
0.293284
0.288939
0.284839
0.280979
0.277353
0.273953
0.27077
0.267792
0.265009
0.262409
0.259982
0.257714
0.255597
0.253618
0.251769
0.250039
0.248419
0.246899
0.245471
0.244129
0.242866
0.241678
0.240558
0.239506
0.238519
0.237596
0.236738
0.235944
0.235217
0.234558
0.233971
0.233457
0.23302
0.232663
0.23239
0.232204
0.232109
0.232108
0.232215
0.23243
0.232749
0.233173
0.233699
0.234326
0.235053
0.235877
0.236798
0.237812
0.238917
0.240108
0.241379
0.242722
0.244123
0.245572
0.247047
0.248527
0.249986
0.251401
0.252748
0.254005
0.255152
0.256175
0.257062
0.257808
0.258412
0.258879
0.259214
0.25943
0.25954
0.259558
0.2595
0.259378
0.259208
0.259003
0.258773
0.258532
0.258286
0.258046
0.257819
0.257611
0.257429
0.257278
0.257164
0.257091
0.257063
0.257082
0.257153
0.257277
0.257457
0.257692
0.257985
0.258333
0.258735
0.259185
0.259678
0.260203
0.260747
0.261295
0.261826
0.262316
0.26273
0.263035
0.263193
0.263157
0.262862
0.262215
0.261054
0.259121
0.255255
0.123698
0.228986
0.295231
0.348844
0.394789
0.435624
0.472395
0.505716
0.536076
0.563898
0.589562
0.613416
0.635785
0.656971
0.677258
0.69691
0.71617
0.735263
0.754385
0.773705
0.793361
0.813456
0.834051
0.855152
0.876696
0.898542
0.920483
0.94244
0.963957
0.984645
1.00411
1.02197
1.03788
1.05151
1.06261
1.07098
1.0765
1.0791
1.07877
1.07557
1.06963
1.06112
1.05025
1.03725
1.02238
1.00588
0.987992
0.968947
0.948969
0.928269
0.907049
0.885492
0.863759
0.841986
0.820245
0.798583
0.776975
0.755278
0.734988
0.715632
0.69695
0.678961
0.661496
0.644478
0.627891
0.611743
0.596053
0.580838
0.566112
0.551885
0.538159
0.524935
0.512209
0.499972
0.488216
0.476924
0.466079
0.455661
0.445648
0.436018
0.426749
0.417821
0.409214
0.40091
0.392892
0.385143
0.377649
0.370397
0.363375
0.356575
0.349991
0.343619
0.33746
0.331516
0.32579
0.320289
0.315024
0.310004
0.305243
0.300755
0.296555
0.292658
0.28908
0.285835
0.282937
0.280397
0.278223
0.276422
0.275
0.273961
0.273304
0.273018
0.273086
0.273492
0.274216
0.275238
0.276538
0.278091
0.279873
0.281851
0.283991
0.28625
0.288579
0.290925
0.293227
0.295426
0.297464
0.299285
0.300841
0.302088
0.302985
0.303498
0.303607
0.303301
0.302582
0.301463
0.299964
0.298113
0.295944
0.293491
0.290794
0.287888
0.28481
0.281596
0.278277
0.274886
0.271449
0.267996
0.26455
0.261136
0.257777
0.254494
0.251306
0.248231
0.245287
0.242488
0.239846
0.237375
0.235083
0.232979
0.231069
0.229357
0.227843
0.22652
0.225381
0.224408
0.223582
0.222876
0.22226
0.221701
0.221165
0.22063
0.220045
0.219363
0.218543
0.217553
0.216373
0.215034
0.213806
0.214225
0.136684
0.272386
0.357561
0.428308
0.48975
0.544573
0.593775
0.637856
0.677251
0.712417
0.74384
0.772017
0.797446
0.820616
0.842004
0.862068
0.881247
0.899951
0.918563
0.937427
0.956844
0.977069
0.998302
1.02068
1.04424
1.06896
1.09466
1.12129
1.14821
1.17487
1.20067
1.22502
1.24733
1.26701
1.28357
1.2966
1.3058
1.31102
1.31221
1.30946
1.30295
1.29295
1.27977
1.26375
1.24526
1.22462
1.20216
1.17821
1.15304
1.12696
1.10018
1.07288
1.04515
1.01695
0.988033
0.958688
0.929859
0.901697
0.874478
0.84826
0.82306
0.79881
0.775424
0.752837
0.731013
0.709935
0.689593
0.669985
0.651108
0.632957
0.615526
0.598806
0.582786
0.567451
0.552782
0.538758
0.525354
0.512541
0.500289
0.488566
0.477344
0.466592
0.456282
0.446387
0.436883
0.427746
0.418954
0.410489
0.402336
0.394482
0.38692
0.379646
0.372659
0.365963
0.359565
0.353473
0.347701
0.342262
0.337172
0.332447
0.328106
0.324165
0.32064
0.317547
0.314898
0.312702
0.310967
0.3097
0.308907
0.308591
0.308728
0.309299
0.310282
0.311654
0.313389
0.315458
0.317833
0.320477
0.323351
0.326409
0.329596
0.332853
0.336111
0.339297
0.342332
0.34514
0.347643
0.349771
0.351464
0.352675
0.353379
0.353559
0.353204
0.352317
0.350916
0.349029
0.346693
0.343955
0.340861
0.337462
0.333809
0.329949
0.325928
0.321789
0.317572
0.313312
0.309043
0.304797
0.300601
0.296483
0.292469
0.28858
0.28484
0.281268
0.277881
0.274693
0.271718
0.268965
0.266445
0.264163
0.262124
0.260328
0.258772
0.257442
0.256319
0.255376
0.254577
0.253883
0.253252
0.252642
0.252021
0.251343
0.25056
0.249632
0.248522
0.247196
0.245611
0.243718
0.241489
0.239346
0.154057
0.311329
0.411197
0.495949
0.570431
0.637055
0.696795
0.750134
0.797513
0.839412
0.876356
0.90891
0.937662
0.963217
0.986182
1.00715
1.02671
1.04541
1.06377
1.08226
1.10133
1.12134
1.1426
1.16533
1.18969
1.21572
1.24338
1.27264
1.30283
1.33322
1.36309
1.39163
1.41797
1.44122
1.46055
1.47533
1.48511
1.48967
1.48902
1.48334
1.47292
1.45819
1.43961
1.41766
1.3928
1.36548
1.33614
1.30515
1.27288
1.23961
1.20555
1.17078
1.13521
1.09922
1.06381
1.0292
0.995632
0.963241
0.932107
0.902249
0.873628
0.846174
0.819809
0.794466
0.770099
0.746673
0.724164
0.702557
0.681838
0.661996
0.643018
0.624892
0.6076
0.591124
0.575441
0.560524
0.546344
0.532867
0.520057
0.507877
0.496286
0.485247
0.474725
0.464684
0.455092
0.445921
0.437145
0.42874
0.420689
0.412981
0.405606
0.398563
0.391853
0.385483
0.379464
0.373809
0.368535
0.363659
0.359202
0.355182
0.351616
0.34852
0.345907
0.343786
0.342164
0.341042
0.340422
0.340302
0.340685
0.34154
0.342844
0.34457
0.346692
0.349181
0.352005
0.35513
0.358516
0.362119
0.365888
0.369765
0.373684
0.377573
0.381353
0.384942
0.388257
0.391217
0.393746
0.395777
0.397257
0.398146
0.398422
0.398087
0.397156
0.395646
0.393591
0.391033
0.388025
0.384622
0.380883
0.376867
0.37263
0.368224
0.363699
0.359098
0.354461
0.349824
0.345219
0.340677
0.336224
0.331887
0.32769
0.323658
0.319817
0.31619
0.312799
0.30966
0.30679
0.304199
0.301897
0.299887
0.298167
0.296731
0.29556
0.294629
0.293901
0.293333
0.292873
0.292467
0.29206
0.291603
0.291059
0.290366
0.289482
0.28837
0.287001
0.285347
0.283382
0.281063
0.27831
0.27523
0.177993
0.358758
0.47379
0.571715
0.65778
0.734362
0.802689
0.863539
0.917601
0.965528
1.00795
1.04548
1.07873
1.1083
1.1348
1.15885
1.18106
1.20204
1.22236
1.24258
1.26319
1.28464
1.30731
1.33151
1.35745
1.38529
1.41511
1.44687
1.48002
1.51361
1.54671
1.57818
1.60679
1.63124
1.65044
1.66356
1.67011
1.66994
1.66321
1.65027
1.63167
1.60802
1.57998
1.54823
1.51338
1.47606
1.43679
1.39606
1.35425
1.31164
1.26839
1.22465
1.18183
1.14021
1.10004
1.06143
1.02442
0.989033
0.955231
0.922967
0.892166
0.862743
0.834614
0.807703
0.78195
0.757306
0.733734
0.711206
0.689696
0.669186
0.649655
0.631083
0.613447
0.596725
0.580887
0.565901
0.551733
0.538344
0.525691
0.513731
0.502418
0.491709
0.481559
0.47193
0.462784
0.454087
0.44581
0.437928
0.430423
0.423281
0.416497
0.410069
0.404002
0.398308
0.393004
0.388108
0.383645
0.379639
0.376115
0.373094
0.370596
0.368634
0.367215
0.36634
0.366002
0.366192
0.366896
0.3681
0.369787
0.371913
0.374447
0.377357
0.380612
0.384176
0.388012
0.392078
0.396326
0.400703
0.405147
0.409593
0.413968
0.418195
0.422192
0.425879
0.429175
0.432004
0.434299
0.436006
0.437082
0.437501
0.437257
0.436359
0.434843
0.432746
0.430115
0.427004
0.423475
0.419592
0.415421
0.411024
0.40646
0.401782
0.39704
0.392276
0.387528
0.382831
0.378217
0.373719
0.369367
0.365189
0.361211
0.357454
0.353938
0.350683
0.347705
0.345021
0.342646
0.340591
0.338866
0.337472
0.336401
0.335636
0.335147
0.334892
0.334816
0.334855
0.33494
0.334998
0.33496
0.334764
0.334357
0.333666
0.332646
0.331255
0.329458
0.327223
0.324513
0.321285
0.317472
0.313242
0.209377
0.419751
0.552431
0.664154
0.76135
0.846793
0.922258
0.989107
1.04854
1.10162
1.14922
1.1921
1.23086
1.26606
1.29821
1.32782
1.35543
1.38158
1.40683
1.4317
1.45673
1.48239
1.50911
1.53726
1.56712
1.59893
1.63284
1.66884
1.70633
1.74401
1.78052
1.81428
1.84359
1.86686
1.88279
1.89054
1.88974
1.88043
1.86303
1.83819
1.80675
1.76961
1.72773
1.68201
1.63333
1.58247
1.53011
1.47677
1.42293
1.36873
1.31572
1.26446
1.21528
1.16832
1.12361
1.08111
1.04078
1.00251
0.96622
0.931789
0.899104
0.86805
0.838521
0.81042
0.783668
0.758196
0.73395
0.710884
0.688963
0.668152
0.648424
0.629748
0.612095
0.595434
0.57973
0.564945
0.551041
0.537971
0.52569
0.514148
0.503298
0.49309
0.483479
0.474421
0.465875
0.457804
0.450176
0.442962
0.436142
0.429701
0.423629
0.417926
0.412598
0.407658
0.403127
0.399033
0.395407
0.392285
0.3897
0.387684
0.386262
0.38545
0.385252
0.385658
0.38665
0.388199
0.390274
0.392841
0.395851
0.399258
0.40302
0.407098
0.411451
0.416037
0.420809
0.425714
0.430693
0.435683
0.440615
0.44542
0.450024
0.454353
0.458331
0.461886
0.464948
0.467455
0.469353
0.470602
0.471175
0.471065
0.470279
0.468842
0.466794
0.464197
0.461108
0.45759
0.453714
0.449548
0.445161
0.440619
0.43598
0.4313
0.426625
0.421998
0.417456
0.413031
0.408755
0.404657
0.400764
0.397101
0.393687
0.390539
0.38767
0.385093
0.38282
0.380867
0.379247
0.377971
0.377045
0.376469
0.376228
0.376295
0.376629
0.377168
0.377841
0.378563
0.379244
0.379793
0.380123
0.380162
0.379826
0.37905
0.377782
0.37598
0.3736
0.370598
0.366913
0.362469
0.357213
0.351469
0.248105
0.494446
0.64721
0.773623
0.881938
0.975659
1.0573
1.12898
1.19257
1.24973
1.30175
1.34962
1.39406
1.43557
1.47455
1.51138
1.54642
1.58009
1.61287
1.64524
1.6777
1.71076
1.74489
1.78047
1.81786
1.8573
1.89892
1.94258
1.98731
2.0313
2.07258
2.109
2.13839
2.15892
2.16925
2.16864
2.15694
2.13452
2.10217
2.06094
2.01209
1.95694
1.89683
1.83301
1.76666
1.69872
1.63008
1.56115
1.49355
1.42838
1.36606
1.30684
1.25077
1.19785
1.14799
1.10106
1.0569
1.01536
0.976254
0.939414
0.904673
0.871871
0.840867
0.811531
0.783754
0.757442
0.732518
0.708917
0.686586
0.665476
0.645546
0.626757
0.60907
0.592446
0.576844
0.562223
0.548536
0.535737
0.523776
0.512603
0.502169
0.492426
0.483325
0.474822
0.466874
0.45944
0.452483
0.445972
0.439877
0.434178
0.428858
0.42391
0.419336
0.415145
0.411359
0.408008
0.40513
0.40277
0.400976
0.399793
0.399262
0.39941
0.400251
0.401779
0.403971
0.406786
0.410172
0.414066
0.418395
0.423089
0.428093
0.433351
0.438809
0.444408
0.450086
0.455773
0.461395
0.466878
0.47215
0.477144
0.481796
0.486042
0.489825
0.493084
0.495769
0.497833
0.49924
0.499967
0.500005
0.499361
0.498058
0.496133
0.493638
0.490639
0.487212
0.483425
0.479353
0.475067
0.470638
0.466132
0.461607
0.457118
0.45271
0.448424
0.444293
0.440344
0.4366
0.433077
0.429793
0.426759
0.423988
0.42149
0.419279
0.417368
0.415774
0.414518
0.413617
0.413088
0.412936
0.413158
0.413733
0.414622
0.415766
0.417086
0.418488
0.419866
0.421108
0.422104
0.422751
0.42296
0.422637
0.421717
0.42015
0.417897
0.414916
0.411164
0.406577
0.401077
0.394646
0.38771
0.293035
0.580058
0.754289
0.895729
1.01494
1.11637
1.20334
1.27876
1.34528
1.40518
1.46028
1.51193
1.56102
1.60813
1.65358
1.69763
1.74051
1.7825
1.82398
1.86539
1.90724
1.95008
1.99443
2.04073
2.08935
2.1405
2.19413
2.2497
2.30554
2.35933
2.40839
2.44986
2.48106
2.49981
2.50465
2.4949
2.47068
2.43275
2.38238
2.32123
2.25114
2.17403
2.0918
2.00606
1.91851
1.82992
1.74252
1.65802
1.57712
1.50026
1.42767
1.35939
1.29538
1.23551
1.1796
1.12742
1.07873
1.03329
0.990832
0.951128
0.913941
0.879058
0.846287
0.815457
0.786419
0.759049
0.73324
0.708904
0.685966
0.664362
0.644036
0.624938
0.60702
0.590236
0.574541
0.559887
0.546228
0.533516
0.521702
0.510738
0.500577
0.491172
0.482476
0.474444
0.46703
0.46019
0.453881
0.448064
0.442701
0.437759
0.433213
0.429042
0.425237
0.421799
0.418741
0.416089
0.413881
0.412164
0.410995
0.410435
0.410539
0.411356
0.412921
0.415244
0.418315
0.4221
0.426544
0.431578
0.437118
0.443069
0.44934
0.455833
0.462456
0.469118
0.475729
0.48219
0.488406
0.494295
0.49979
0.504839
0.509398
0.513429
0.516893
0.519756
0.521984
0.523551
0.52444
0.524643
0.524167
0.523032
0.521273
0.518938
0.516087
0.512789
0.509129
0.50518
0.501017
0.496712
0.492334
0.487947
0.483607
0.479363
0.475258
0.471329
0.467603
0.464103
0.460845
0.457841
0.455097
0.45262
0.450416
0.448491
0.446856
0.445525
0.444522
0.443876
0.443614
0.443757
0.444313
0.445275
0.446614
0.448275
0.450181
0.45223
0.454309
0.456289
0.458039
0.45943
0.460344
0.460674
0.460324
0.459234
0.457359
0.454665
0.451127
0.446712
0.441374
0.435069
0.427858
0.420253
0.342044
0.671781
0.867314
1.02308
1.15231
1.26046
1.35165
1.42956
1.49753
1.55849
1.61479
1.66819
1.71986
1.77049
1.82048
1.87001
1.91924
1.96837
2.0177
2.06769
2.11889
2.17192
2.22739
2.28587
2.34774
2.41313
2.48169
2.55223
2.62253
2.69004
2.75143
2.80301
2.84122
2.86309
2.8666
2.85078
2.81581
2.76284
2.6938
2.61115
2.51761
2.41582
2.30867
2.19767
2.08657
1.97784
1.87279
1.77236
1.67714
1.58743
1.50334
1.42485
1.3518
1.28399
1.22111
1.16287
1.10893
1.05894
1.01257
0.969495
0.929415
0.89205
0.857148
0.824485
0.793871
0.76514
0.738154
0.712795
0.688968
0.666589
0.64559
0.625907
0.607485
0.590273
0.574222
0.559284
0.545412
0.53256
0.520683
0.509738
0.49968
0.490465
0.482047
0.474378
0.467411
0.461096
0.455382
0.450219
0.445559
0.441358
0.437577
0.434184
0.431157
0.428483
0.426162
0.42421
0.422654
0.421537
0.420913
0.420847
0.421405
0.422653
0.424646
0.427422
0.430999
0.435368
0.440496
0.446332
0.452792
0.459764
0.467126
0.474753
0.482514
0.490266
0.497849
0.505098
0.511879
0.518098
0.523712
0.528703
0.533065
0.536789
0.539867
0.542287
0.54404
0.545116
0.545516
0.545246
0.544327
0.542788
0.540673
0.538036
0.534941
0.531462
0.527675
0.523664
0.519501
0.515255
0.51099
0.506763
0.502626
0.49862
0.494781
0.49114
0.487718
0.484533
0.481599
0.478926
0.476519
0.474385
0.472531
0.47097
0.469717
0.468796
0.468236
0.46807
0.46833
0.469039
0.470209
0.471828
0.473858
0.476229
0.478837
0.481556
0.484252
0.486783
0.489
0.490754
0.491912
0.492348
0.491974
0.490729
0.488577
0.485501
0.481491
0.476543
0.47065
0.463844
0.456295
0.448542
0.39207
0.763372
0.978328
1.14644
1.28383
1.39703
1.49091
1.56979
1.6376
1.6978
1.75322
1.80599
1.85757
1.90885
1.96031
2.01218
2.06458
2.11768
2.17175
2.22724
2.28475
2.34503
2.40883
2.47686
2.54964
2.62731
2.70926
2.79365
2.87897
2.96329
3.04297
3.11312
3.16844
3.20408
3.21629
3.20299
3.16398
3.10072
3.0159
2.9131
2.79642
2.66859
2.53624
2.40286
2.27112
2.14301
2.01997
1.90294
1.79253
1.68904
1.59254
1.50296
1.42006
1.34354
1.27303
1.2081
1.14833
1.09328
1.04253
0.995663
0.952302
0.912093
0.874721
0.839906
0.807405
0.77701
0.748547
0.721869
0.696856
0.673407
0.651439
0.63088
0.611669
0.593751
0.577076
0.561598
0.547275
0.534064
0.521927
0.510823
0.500711
0.491548
0.483287
0.475876
0.469263
0.463387
0.458189
0.453609
0.449585
0.446064
0.442994
0.440332
0.438044
0.436106
0.434507
0.433247
0.432344
0.431827
0.431742
0.432144
0.4331
0.434682
0.436956
0.439982
0.443804
0.448441
0.45389
0.460121
0.467076
0.47465
0.482723
0.491155
0.499783
0.508415
0.516834
0.52481
0.532103
0.538563
0.544191
0.54903
0.55312
0.556489
0.559158
0.561141
0.562446
0.563085
0.56307
0.562421
0.561168
0.559347
0.557007
0.554205
0.551005
0.54748
0.543703
0.539755
0.535707
0.531621
0.527556
0.523562
0.519681
0.515948
0.512391
0.509029
0.50588
0.502952
0.500255
0.497795
0.495579
0.493617
0.491921
0.49051
0.489409
0.488651
0.488269
0.488302
0.488786
0.489753
0.491219
0.493179
0.495596
0.498401
0.501486
0.504716
0.507933
0.510963
0.513626
0.515747
0.517169
0.517757
0.51742
0.516099
0.513771
0.51044
0.506131
0.500888
0.494776
0.487904
0.480487
0.472989
0.439234
0.848469
1.07922
1.25609
1.39862
1.51453
1.60932
1.68774
1.75407
1.8121
1.86496
1.91503
1.96398
2.01287
2.06226
2.11238
2.16334
2.21523
2.26823
2.32273
2.3793
2.43875
2.50195
2.56984
2.64326
2.72285
2.80853
2.89886
2.99549
3.09886
3.20539
3.30795
3.39758
3.46538
3.50396
3.50864
3.47824
3.4145
3.32094
3.20205
3.06693
2.9212
2.76995
2.61727
2.46632
2.31954
2.17869
2.04497
1.91914
1.80156
1.69233
1.59133
1.49826
1.41274
1.33429
1.2624
1.19655
1.13619
1.08082
1.02993
0.983059
0.939782
0.899716
0.86252
0.827899
0.7956
0.765412
0.73716
0.7107
0.685914
0.662708
0.641004
0.620737
0.601854
0.584309
0.568061
0.553072
0.539308
0.526733
0.515313
0.505007
0.495771
0.487554
0.480299
0.47394
0.468409
0.463632
0.459536
0.45605
0.453106
0.450644
0.44861
0.446962
0.445668
0.444707
0.444073
0.443771
0.443822
0.444258
0.445124
0.446476
0.448376
0.450891
0.454084
0.458011
0.462714
0.468215
0.474509
0.481574
0.489328
0.497655
0.506411
0.515425
0.524491
0.533369
0.541773
0.549406
0.555997
0.561541
0.566162
0.569946
0.572956
0.575238
0.576827
0.577753
0.57804
0.577714
0.576805
0.575348
0.573386
0.570969
0.568154
0.565004
0.561587
0.557972
0.554232
0.550438
0.546644
0.5429
0.53925
0.535727
0.532358
0.529161
0.526148
0.523326
0.5207
0.518271
0.51604
0.514012
0.512194
0.5106
0.509248
0.508168
0.507397
0.506977
0.506958
0.507388
0.508311
0.509755
0.511728
0.514203
0.51712
0.520376
0.52383
0.527304
0.530598
0.533509
0.535845
0.537432
0.538134
0.537857
0.536549
0.534196
0.530824
0.526484
0.521262
0.515271
0.508657
0.501627
0.494542
0.496346
0.924246
1.16335
1.34326
1.48699
1.60315
1.69749
1.77476
1.83924
1.89468
1.94424
1.99037
2.03482
2.07868
2.12252
2.16653
2.21066
2.2548
2.29884
2.34287
2.38716
2.43226
2.47893
2.52825
2.58183
2.6422
2.71192
2.79255
2.89299
3.0183
3.16482
3.32037
3.46884
3.59442
3.68376
3.72745
3.72273
3.67177
3.58245
3.46287
3.3211
3.16435
2.99895
2.83015
2.66216
2.49821
2.34063
2.19104
2.05042
1.91929
1.79777
1.68574
1.58284
1.48862
1.4025
1.32388
1.25212
1.18661
1.12672
1.07188
1.02155
0.975211
0.932427
0.892797
0.855972
0.821659
0.78961
0.759622
0.731531
0.705207
0.680549
0.657475
0.635926
0.615852
0.597217
0.579987
0.564134
0.549631
0.536448
0.524554
0.513909
0.504466
0.496168
0.488946
0.482725
0.477419
0.472943
0.469206
0.466125
0.46362
0.461619
0.460061
0.458896
0.458088
0.457613
0.457459
0.457628
0.458135
0.459005
0.460272
0.46198
0.464177
0.466914
0.470245
0.474218
0.478876
0.484251
0.490359
0.497197
0.504732
0.512866
0.521469
0.530371
0.539362
0.548192
0.556568
0.564165
0.570695
0.576095
0.580483
0.583975
0.586661
0.588612
0.589883
0.590518
0.590556
0.590033
0.588987
0.587459
0.585495
0.583144
0.580464
0.577512
0.574353
0.571049
0.567665
0.564267
0.560902
0.557612
0.554432
0.551386
0.548491
0.545757
0.543187
0.540779
0.53853
0.536432
0.534484
0.532683
0.531035
0.529551
0.528253
0.527171
0.526346
0.525828
0.525673
0.525941
0.526686
0.527949
0.529747
0.532069
0.534858
0.538018
0.541408
0.544851
0.548145
0.551083
0.553458
0.555096
0.555855
0.555637
0.554392
0.552111
0.54883
0.544617
0.539573
0.533825
0.527525
0.520863
0.51413
0.603285
0.988789
1.22427
1.4012
1.54279
1.65777
1.75151
1.82821
1.89165
1.94522
1.99184
2.03384
2.0729
2.11008
2.14587
2.18031
2.21309
2.24369
2.2715
2.2959
2.3164
2.33266
2.34472
2.35335
2.36087
2.37262
2.39898
2.45089
2.54916
2.70306
2.90657
3.13719
3.36799
3.57495
3.73863
3.83997
3.87956
3.86164
3.79371
3.68507
3.54548
3.38422
3.20955
3.02842
2.84638
2.66769
2.49544
2.33175
2.17793
2.03466
1.90215
1.78027
1.66864
1.56671
1.47383
1.3893
1.31239
1.24237
1.17855
1.12026
1.06688
1.01784
0.972622
0.93078
0.891916
0.855692
0.821831
0.790107
0.76034
0.732392
0.706159
0.681567
0.658564
0.637114
0.617192
0.598779
0.581859
0.566416
0.552428
0.539866
0.528694
0.518861
0.510303
0.502941
0.496687
0.491439
0.487094
0.483546
0.480693
0.478442
0.476711
0.475429
0.474541
0.474008
0.473805
0.47392
0.474357
0.475127
0.476254
0.477767
0.479698
0.482082
0.484955
0.48835
0.492298
0.496827
0.501961
0.507717
0.5141
0.521108
0.528686
0.536726
0.545077
0.553542
0.561874
0.569784
0.576963
0.583182
0.588338
0.592474
0.595698
0.598113
0.599803
0.600839
0.601277
0.601168
0.600555
0.599484
0.597999
0.596148
0.593981
0.591552
0.588916
0.586132
0.583257
0.580348
0.577459
0.574634
0.571907
0.5693
0.56683
0.564506
0.562326
0.560285
0.558372
0.556573
0.554875
0.553269
0.551747
0.550311
0.54897
0.547746
0.546669
0.545783
0.545142
0.544808
0.544846
0.545322
0.546288
0.547776
0.549788
0.552286
0.555185
0.558356
0.56163
0.564806
0.567673
0.570025
0.571676
0.572476
0.572319
0.571149
0.568957
0.565782
0.561699
0.556815
0.551264
0.545195
0.538785
0.532273
0.657824
1.02819
1.2567
1.4277
1.56615
1.6804
1.77472
1.85239
1.9164
1.96959
2.01451
2.05324
2.08733
2.11773
2.14484
2.16853
2.18829
2.20325
2.21226
2.21397
2.20679
2.18913
2.15976
2.11887
2.06909
2.01657
1.97505
1.98972
2.09042
2.27831
2.54564
2.85504
3.16908
3.45717
3.69429
3.86431
3.96124
3.98712
3.94955
3.85923
3.72802
3.56749
3.38805
3.19847
3.00583
2.81551
2.63142
2.45625
2.29165
2.13852
1.99715
1.86742
1.7489
1.64099
1.54294
1.45396
1.37322
1.29993
1.23328
1.17255
1.11704
1.0661
1.01917
0.975738
0.935362
0.89767
0.862352
0.829163
0.797911
0.768455
0.740695
0.714568
0.69004
0.667092
0.645721
0.625929
0.60772
0.591094
0.576042
0.562546
0.550574
0.540076
0.530986
0.523218
0.51667
0.511228
0.506769
0.503166
0.500302
0.498064
0.496358
0.495105
0.494243
0.493729
0.49354
0.493667
0.494113
0.494893
0.496029
0.497548
0.499475
0.501837
0.504653
0.507941
0.511712
0.515978
0.520746
0.526023
0.531812
0.538105
0.544896
0.552105
0.559607
0.567229
0.574749
0.581906
0.588432
0.594122
0.598879
0.602702
0.60566
0.607842
0.609333
0.610208
0.61053
0.610355
0.609736
0.60872
0.607356
0.605692
0.603779
0.601666
0.599408
0.597055
0.594662
0.592277
0.589948
0.587709
0.585584
0.583589
0.581732
0.580012
0.578419
0.576939
0.575551
0.574234
0.572967
0.571733
0.57052
0.569325
0.568155
0.567029
0.565979
0.565048
0.564291
0.563775
0.563571
0.56375
0.564376
0.565493
0.567118
0.569232
0.571768
0.574615
0.577617
0.580585
0.58331
0.585582
0.587208
0.588029
0.587927
0.586835
0.58474
0.581674
0.577713
0.572965
0.567562
0.561649
0.55539
0.548985
0.679021
1.03764
1.26026
1.42744
1.56486
1.68019
1.77677
1.85709
1.92346
1.97815
2.02328
2.06061
2.09147
2.11668
2.13657
2.15097
2.15933
2.16073
2.15389
2.13721
2.10874
2.06648
2.00922
1.93782
1.85542
1.76889
1.69922
1.70585
1.81232
2.01414
2.29406
2.62744
2.98261
3.32434
3.62055
3.84817
3.99567
4.06203
4.05389
3.98259
3.8615
3.7041
3.52269
3.32775
3.12771
2.92904
2.7364
2.55298
2.38075
2.22077
2.0734
1.93852
1.81564
1.7041
1.60307
1.51167
1.42901
1.35419
1.28636
1.2247
1.16846
1.11693
1.06949
1.02557
0.984695
0.946443
0.910474
0.876517
0.844365
0.813873
0.784946
0.757531
0.731614
0.707203
0.684324
0.66301
0.643294
0.625204
0.60876
0.593964
0.580801
0.569234
0.559204
0.550627
0.543396
0.537385
0.532454
0.528458
0.525257
0.52272
0.520737
0.519215
0.518085
0.517303
0.51684
0.51669
0.516858
0.517358
0.518215
0.51945
0.521087
0.523144
0.525633
0.52856
0.531925
0.535726
0.539957
0.544615
0.549693
0.555183
0.561062
0.567306
0.573811
0.580431
0.586979
0.593233
0.598973
0.604022
0.608282
0.611733
0.614411
0.616379
0.61771
0.618473
0.618732
0.618544
0.617964
0.617041
0.615825
0.614366
0.61271
0.610909
0.60901
0.607062
0.605114
0.60321
0.601389
0.599675
0.598086
0.596633
0.595317
0.594129
0.593053
0.592067
0.591144
0.590254
0.589371
0.588472
0.587539
0.586567
0.585558
0.584532
0.583516
0.582554
0.581705
0.581033
0.580611
0.580516
0.58082
0.581579
0.582824
0.58455
0.586711
0.589213
0.591918
0.594651
0.597209
0.599386
0.600981
0.601826
0.601791
0.600797
0.598818
0.595879
0.592048
0.587429
0.58215
0.576351
0.570179
0.563814
0.672664
1.01781
1.24079
1.41049
1.55056
1.66906
1.76948
1.85398
1.92442
1.98256
2.03005
2.06826
2.09827
2.12071
2.13587
2.14362
2.14352
2.13485
2.11662
2.08758
2.04633
1.99175
1.92399
1.8458
1.76305
1.68782
1.64516
1.67001
1.7792
1.97309
2.24032
2.56363
2.91857
3.27261
3.59122
3.84623
4.02094
4.11059
4.11992
4.05987
3.94442
3.78819
3.60476
3.4058
3.20072
2.99671
2.79893
2.61087
2.43466
2.27142
2.1215
1.98472
1.86054
1.74821
1.64684
1.55547
1.47315
1.39892
1.33187
1.27115
1.21594
1.16551
1.11917
1.07631
1.03641
0.999002
0.963704
0.930211
0.898289
0.867772
0.838554
0.810584
0.783852
0.758388
0.734244
0.711485
0.690188
0.670424
0.652256
0.635732
0.620878
0.607695
0.596153
0.586188
0.577707
0.570585
0.564674
0.559813
0.555839
0.552601
0.549965
0.547823
0.546094
0.544722
0.543676
0.542945
0.542533
0.542453
0.542725
0.54337
0.544408
0.545853
0.547712
0.549988
0.552676
0.55577
0.559259
0.563132
0.567376
0.571977
0.57691
0.582135
0.587601
0.593181
0.59872
0.604039
0.608956
0.613325
0.617053
0.620105
0.62249
0.624248
0.625434
0.626104
0.626316
0.626124
0.625581
0.624736
0.623637
0.622331
0.620866
0.619288
0.617644
0.61598
0.614338
0.612762
0.611276
0.609904
0.608661
0.607553
0.606579
0.605726
0.604975
0.6043
0.603668
0.603048
0.602408
0.60172
0.600964
0.60013
0.599219
0.598246
0.597238
0.59624
0.595305
0.594501
0.593902
0.593589
0.593636
0.594105
0.595037
0.596441
0.598286
0.600496
0.602951
0.60549
0.607922
0.610042
0.611651
0.61257
0.612658
0.611822
0.610022
0.607268
0.60362
0.599172
0.594044
0.58837
0.582287
0.575955
0.643887
0.977901
1.20655
1.38406