/*--------------------------------*- C++ -*----------------------------------*\
| =========                 |                                                 |
| \\      /  F ield         | OpenFOAM: The Open Source CFD Toolbox           |
|  \\    /   O peration     | Version:  1.4.2                                 |
|   \\  /    A nd           | Web:      http://www.openfoam.org               |
|    \\/     M anipulation  |                                                 |
\*---------------------------------------------------------------------------*/
FoamFile
{
    version     2.0;
    format      ascii;
    class       volScalarField;
    object      p;
    location    "50";
}
// * * * * * * * * * * * * * * * * * * * * * * * * * * * * * * * * * * * * * //

dimensions      [0 2 -2 0 0 0 0];

internalField   nonuniform List<scalar> 
12225
(
20.4453
20.1243
19.9121
19.8835
19.763
19.5633
19.2407
18.7633
18.1163
17.3067
16.3626
15.3223
14.2255
13.1033
11.9748
10.8489
9.68226
8.61057
20.6566
20.4346
20.1224
20.023
19.8292
19.5625
19.1747
18.6378
17.9403
17.092
16.1218
15.0662
13.9625
12.8393
11.7128
10.5904
9.42464
8.26047
20.6275
20.6586
20.2432
20.0858
19.8046
19.4517
18.9762
18.3606
17.5993
16.706
15.7102
14.6453
13.5443
12.4318
11.3204
10.2168
9.07316
8.01662
20.4156
20.7795
20.2553
20.0496
19.6765
19.2346
18.6692
17.9745
17.1505
16.2144
15.1965
14.1274
13.0356
11.9411
10.8543
9.78241
8.68936
7.7176
20.1146
20.8093
20.1681
19.916
19.449
18.9187
18.2661
17.4968
16.6157
15.6442
14.6132
13.5503
12.4787
11.4136
10.3632
9.33589
8.30772
7.39357
19.7552
20.7474
19.9836
19.6833
19.1226
18.5062
17.7712
16.9332
16.0029
15.006
13.9734
12.9279
11.8872
10.8617
9.85755
8.88285
7.92244
7.05974
19.3197
20.5861
19.6871
19.3442
18.6911
17.9939
17.1831
16.286
15.3183
14.3088
13.287
12.27
11.2705
10.2941
9.34555
8.43082
7.539
6.73617
18.8892
20.385
19.336
18.9595
18.2118
17.4355
16.5519
15.6032
14.6106
13.6046
12.6098
11.6367
10.6923
9.77649
8.89234
8.04397
7.21916
6.48435
18.481
20.1066
18.9738
18.533
17.7013
16.8432
15.891
14.8972
13.8895
12.8984
11.9423
11.0246
10.1456
9.29965
8.48692
7.70892
6.95337
6.28671
17.9686
19.6875
18.5279
18.0126
17.1195
16.1909
15.1867
14.1638
13.1552
12.1897
11.279
10.4219
9.61387
8.84556
8.11183
7.4121
6.7348
6.14477
17.3134
19.116
17.9869
17.4124
16.4919
15.5206
14.4913
13.4638
12.4717
11.5417
10.6824
9.88904
9.15432
8.46687
7.81717
7.20188
6.61048
6.10445
16.4864
18.3815
17.3423
16.7324
15.8214
14.8403
13.8166
12.8103
11.858
10.9824
10.1894
9.47165
8.82046
8.2234
7.66814
7.14805
6.65466
6.24307
15.4762
17.4991
16.5936
15.9743
15.11
14.1581
13.1768
12.2234
11.3392
10.5452
9.8451
9.2285
8.68409
8.19799
7.75685
7.35125
6.9759
6.67736
14.3161
16.5265
15.7631
15.1486
14.3653
13.4884
12.5912
11.7294
10.9456
10.2641
9.68901
9.20807
8.80484
8.46215
8.16418
7.89979
7.66932
7.50721
13.0725
15.5301
14.9035
14.2876
13.6121
12.8586
12.0914
11.3625
10.7148
10.1765
9.75292
9.43251
9.19359
9.01393
8.87302
8.76008
8.68435
8.66399
11.8217
14.5338
14.0726
13.4541
12.9061
12.3197
11.7266
11.1717
10.6936
10.3184
10.0507
9.87843
9.77801
9.72648
9.70384
9.70468
9.75103
9.84329
10.7046
13.5391
13.2986
12.7236
12.3306
11.9512
11.5693
11.2188
10.9266
10.7062
10.5581
10.4716
10.4328
10.4302
10.4557
10.5163
10.6499
10.8389
10.0093
12.6688
12.6102
12.1814
11.9782
11.816
11.6495
11.4928
11.3519
11.2268
11.121
11.0366
10.9793
10.9547
10.9688
11.0392
11.2092
11.4432
9.81432
12.0008
12.0642
11.8698
11.8537
11.8625
11.8528
11.8161
11.7435
11.6333
11.4971
11.3525
11.2196
11.1154
11.0543
11.0563
11.1553
11.3028
9.8687
11.5012
11.6872
11.7218
11.8375
11.9452
12.0118
12.0217
11.9639
11.8413
11.6684
11.4681
11.2644
11.0775
10.9239
10.8211
10.7881
10.7786
9.95254
11.14
11.4366
11.6334
11.8185
11.967
12.0583
12.0807
12.0247
11.8935
11.7001
11.464
11.207
10.9488
10.7058
10.492
10.3161
10.1424
9.97091
10.883
11.2485
11.5278
11.7378
11.8938
11.9887
12.0147
11.9653
11.8404
11.6485
11.4022
11.1189
10.8158
10.5078
10.2067
9.91735
9.61857
9.91853
10.6917
11.0724
11.3698
11.5777
11.7282
11.8234
11.8578
11.8258
11.7238
11.5551
11.3257
11.0476
10.7342
10.3982
10.0507
9.69565
9.32423
9.82896
10.5339
10.8774
11.1524
11.3439
11.4882
11.5891
11.6417
11.6393
11.5745
11.4466
11.2568
11.0117
10.7211
10.3949
10.043
9.6689
9.27175
9.7433
10.3849
10.6505
10.8814
11.0528
11.1956
11.311
11.3914
11.4283
11.4116
11.3371
11.2027
11.0105
10.7668
10.4787
10.1546
9.79782
9.41094
9.69774
10.2257
10.3919
10.5704
10.7239
10.8713
11.0088
11.1243
11.2076
11.2456
11.2314
11.1605
11.0312
10.8471
10.6126
10.3343
10.016
9.66257
9.72016
10.0435
10.1033
10.2319
10.3735
10.5313
10.6957
10.8503
10.9823
11.0769
11.1248
11.1193
11.0557
10.9347
10.7584
10.5318
10.2598
9.95064
9.79598
9.80684
9.76754
9.8601
9.99958
10.1744
10.3697
10.5657
10.7474
10.8987
11.0081
11.0671
11.0683
11.01
10.8918
10.7176
10.4927
10.2293
9.83164
9.48636
9.37858
9.45957
9.61112
9.81121
10.0415
10.2801
10.5102
10.7153
10.8823
11.001
11.0626
11.0625
10.9987
10.8728
10.6898
10.4633
9.66395
9.0602
8.9448
9.06394
9.26042
9.50512
9.77905
10.0608
10.3341
10.5832
10.7953
10.9595
11.0664
11.11
11.0875
10.9994
10.8497
10.6504
3.63343
3.52395
3.37935
3.20648
3.00785
2.78926
2.55612
2.31297
2.06369
1.81167
1.56015
1.31224
1.07109
0.840022
0.622494
0.422221
0.243164
0.0893822
-0.0348271
-0.124823
-0.175769
-0.183027
-0.142856
-0.0527584
0.089726
0.288544
0.547859
0.86883
1.24932
1.68545
2.17194
2.70249
3.27018
3.86779
4.48809
5.12412
5.7693
6.4174
7.06246
7.69883
8.32139
8.92566
9.50795
10.0654
10.5962
11.099
11.5731
12.0185
12.435
12.8231
13.1831
13.516
13.8233
14.1068
14.3681
14.6089
14.8302
15.0329
15.2185
15.3909
15.5525
15.7028
15.8412
15.9676
16.0825
16.1866
16.2805
16.3647
16.4398
16.5066
16.5654
16.6168
16.6612
16.6992
16.7311
16.7573
16.7782
16.7941
16.8053
16.8122
16.8151
16.8142
16.81
16.8027
16.7926
16.7801
16.7654
16.7488
16.7307
16.7113
16.691
16.6701
16.6489
16.6277
16.6068
16.5866
16.5672
16.5492
16.5327
16.5181
16.5057
16.4958
16.4886
16.4843
16.4828
16.4843
16.4887
16.4959
16.5057
16.5181
16.5329
16.55
16.5691
16.59
16.6126
16.6364
16.6613
16.687
16.7133
16.7398
16.7664
16.7929
16.8192
16.8454
16.8714
16.8974
16.9234
16.9493
16.9752
17.0009
17.0262
17.051
17.075
17.098
17.1198
17.1404
17.1597
17.1774
17.1935
17.208
17.2209
17.2322
17.2419
17.25
17.2564
17.2612
17.2644
17.266
17.2659
17.2641
17.2606
17.2554
17.2484
17.2398
17.2295
17.2178
17.2044
17.1895
17.1729
17.1547
17.1347
17.1128
17.0889
17.0632
17.0356
17.0064
16.9758
16.9443
16.9122
16.8801
16.8486
16.8187
16.7914
16.7683
16.7516
16.7448
16.7538
16.7892
16.8741
17.0372
3.59049
3.4746
3.33574
3.1768
2.99225
2.78621
2.56403
2.33008
2.08806
1.84119
1.59253
1.34514
1.10216
0.866905
0.64294
0.434007
0.244111
0.0774933
-0.0614301
-0.168014
-0.237381
-0.264669
-0.245431
-0.175989
-0.0534323
0.125154
0.363237
0.662789
1.02261
1.43925
1.9077
2.4219
2.97512
3.56031
4.17041
4.79856
5.43818
6.08294
6.72677
7.36392
7.98911
8.59768
9.18583
9.75069
10.2903
10.8033
11.2889
11.7465
12.1756
12.5759
12.9474
13.2907
13.6072
13.8987
14.1676
14.4163
14.647
14.8604
15.0564
15.2364
15.4022
15.5555
15.6968
15.8266
15.9454
16.0536
16.1518
16.2404
16.3202
16.3915
16.4548
16.5107
16.5595
16.6018
16.6378
16.6681
16.693
16.7127
16.7277
16.7382
16.7446
16.7472
16.7463
16.7423
16.7355
16.7262
16.7146
16.701
16.6858
16.6693
16.6518
16.6336
16.615
16.5963
16.5778
16.5598
16.5428
16.5268
16.5124
16.4998
16.4892
16.4811
16.4757
16.4729
16.473
16.4759
16.4815
16.4899
16.5008
16.5142
16.5299
16.5478
16.5676
16.5891
16.6121
16.6363
16.6615
16.6875
16.7139
16.7405
16.767
16.7934
16.8197
16.8457
16.8716
16.8975
16.9232
16.949
16.9746
17
17.025
17.0494
17.073
17.0956
17.117
17.1372
17.1561
17.1735
17.1893
17.2035
17.2161
17.2272
17.2368
17.2448
17.2512
17.256
17.2592
17.2608
17.2608
17.2591
17.2557
17.2506
17.2438
17.2353
17.2252
17.2137
17.2005
17.1858
17.1694
17.1513
17.1314
17.1095
17.0858
17.0601
17.0325
17.0034
16.973
16.9416
16.9096
16.8777
16.8465
16.8167
16.7896
16.7666
16.7499
16.7426
16.7504
16.7825
16.8573
16.9806
3.25653
3.13749
3.00328
2.86289
2.70277
2.52278
2.3265
2.11707
1.89733
1.67
1.4379
1.20395
0.971315
0.743327
0.523588
0.316028
0.124759
-0.0458711
-0.191259
-0.306612
-0.386939
-0.427112
-0.422144
-0.367482
-0.259288
-0.0944958
0.129836
0.416084
0.764049
1.17072
1.63127
2.13972
2.68939
3.27324
3.88411
4.51493
5.15881
5.80905
6.45914
7.10291
7.73478
8.35
8.94479
9.51638
10.0628
10.5825
11.0743
11.5371
11.9699
12.3723
12.7447
13.0885
13.4062
13.7009
13.9757
14.2317
14.4691
14.6886
14.8912
15.0781
15.2507
15.4101
15.5571
15.6922
15.8161
15.9292
16.0322
16.1255
16.2098
16.2854
16.3529
16.4128
16.4655
16.5115
16.5512
16.5849
16.6131
16.636
16.6541
16.6677
16.6771
16.6826
16.6847
16.6835
16.6794
16.6728
16.6638
16.6528
16.64
16.6259
16.6108
16.5948
16.5784
16.5618
16.5454
16.5294
16.5143
16.5004
16.488
16.4773
16.4688
16.4627
16.4591
16.4583
16.4601
16.4646
16.4719
16.4817
16.4941
16.5089
16.5258
16.5448
16.5656
16.588
16.6117
16.6366
16.6623
16.6885
16.7151
16.7417
16.7682
16.7945
16.8206
16.8465
16.8723
16.898
16.9236
16.9491
16.9745
16.9995
17.0241
17.0479
17.0709
17.0929
17.1138
17.1335
17.1519
17.1687
17.1841
17.198
17.2104
17.2213
17.2307
17.2385
17.2449
17.2496
17.2529
17.2545
17.2546
17.253
17.2497
17.2447
17.238
17.2297
17.2199
17.2085
17.1956
17.181
17.1648
17.1468
17.127
17.1052
17.0815
17.0558
17.0283
16.9993
16.969
16.9378
16.9061
16.8745
16.8435
16.814
16.7871
16.7639
16.7466
16.7378
16.742
16.7659
16.8209
16.9018
2.82824
2.72111
2.60114
2.48109
2.34425
2.18813
2.015
1.82713
1.62656
1.41547
1.19641
0.972124
0.74574
0.52074
0.300836
0.0900247
-0.107359
-0.286684
-0.443085
-0.57149
-0.666591
-0.722917
-0.735023
-0.697632
-0.605853
-0.455579
-0.243554
0.033069
0.375178
0.780364
1.24392
1.75962
2.32033
2.91847
3.54619
4.19569
4.85921
5.52909
6.19797
6.85922
7.50701
8.13661
8.74431
9.32727
9.88326
10.4104
10.9068
11.3711
11.803
12.2033
12.5744
12.9194
13.2417
13.5429
13.8232
14.0838
14.3255
14.5495
14.7566
14.9481
15.125
15.2884
15.4391
15.5777
15.7049
15.8212
15.9273
16.0237
16.1109
16.1895
16.26
16.3227
16.3783
16.427
16.4694
16.5058
16.5366
16.5621
16.5827
16.5988
16.6108
16.6188
16.6234
16.6246
16.623
16.6186
16.6119
16.6031
16.5926
16.5806
16.5675
16.5536
16.5392
16.5246
16.5101
16.4962
16.4832
16.4714
16.4611
16.4526
16.4463
16.4424
16.441
16.4422
16.446
16.4525
16.4616
16.4732
16.4873
16.5035
16.5219
16.5421
16.564
16.5873
16.6118
16.6373
16.6634
16.6899
16.7166
16.7432
16.7697
16.7959
16.822
16.8479
16.8736
16.8992
16.9246
16.9498
16.9748
16.9994
17.0234
17.0467
17.0691
17.0905
17.1107
17.1298
17.1476
17.164
17.179
17.1925
17.2047
17.2154
17.2246
17.2324
17.2387
17.2435
17.2468
17.2486
17.2488
17.2473
17.2442
17.2394
17.233
17.2251
17.2155
17.2044
17.1917
17.1773
17.1612
17.1433
17.1235
17.1018
17.078
17.0523
17.025
16.9961
16.966
16.935
16.9036
16.8721
16.8413
16.8118
16.7846
16.7608
16.7422
16.731
16.7304
16.7444
16.7787
16.8242
2.40336
2.30405
2.19097
2.08183
1.95859
1.81735
1.65934
1.48583
1.29813
1.09784
0.887012
0.668132
0.44407
0.218101
-0.00606378
-0.224384
-0.432495
-0.625651
-0.79873
-0.946307
-1.06265
-1.14173
-1.17733
-1.16309
-1.09262
-0.959911
-0.760038
-0.48928
-0.146241
0.266835
0.744772
1.28054
1.86601
2.49244
3.15076
3.8318
4.52646
5.226
5.92232
6.60828
7.27798
7.92665
8.55053
9.14648
9.71181
10.2443
10.7424
11.2061
11.6374
12.0393
12.4152
12.767
13.0952
13.4009
13.6853
13.9495
14.1946
14.4218
14.6322
14.8269
15.0069
15.1733
15.3267
15.4681
15.598
15.7171
15.8258
15.9249
16.0149
16.0962
16.1694
16.2348
16.2931
16.3445
16.3895
16.4284
16.4618
16.4898
16.513
16.5316
16.546
16.5564
16.5633
16.5669
16.5674
16.5653
16.5607
16.554
16.5454
16.5354
16.5241
16.5121
16.4995
16.4867
16.4742
16.4622
16.4512
16.4415
16.4334
16.4272
16.4232
16.4215
16.4223
16.4257
16.4316
16.4401
16.4511
16.4645
16.4802
16.4981
16.5178
16.5392
16.5621
16.5863
16.6114
16.6374
16.6638
16.6906
16.7174
16.7441
16.7707
16.797
16.8232
16.8491
16.8748
16.9003
16.9256
16.9505
16.9752
16.9993
17.0228
17.0455
17.0673
17.0881
17.1078
17.1264
17.1437
17.1597
17.1744
17.1878
17.1998
17.2105
17.2198
17.2277
17.2341
17.2391
17.2427
17.2447
17.2452
17.244
17.2412
17.2368
17.2308
17.2232
17.214
17.2032
17.1907
17.1764
17.1604
17.1424
17.1226
17.1007
17.0769
17.0513
17.024
16.9952
16.9652
16.9343
16.9028
16.8713
16.8402
16.8102
16.7822
16.7571
16.7363
16.7215
16.715
16.7186
16.7341
16.7515
1.98749
1.88821
1.77222
1.66383
1.5442
1.40799
1.25552
1.08722
0.903563
0.705602
0.494903
0.273451
0.0437911
-0.191095
-0.427707
-0.662116
-0.889932
-1.10617
-1.30533
-1.48146
-1.62806
-1.7381
-1.80409
-1.81799
-1.77125
-1.65539
-1.46307
-1.18943
-0.833187
-0.397367
0.111422
0.684482
1.31198
1.9834
2.68779
3.41432
4.15246
4.8923
5.62508
6.34331
7.04083
7.71261
8.35455
8.96326
9.53624
10.0724
10.5725
11.0391
11.4761
11.8856
12.2684
12.6252
12.9574
13.2664
13.5536
13.8204
14.0679
14.2975
14.5103
14.7075
14.89
15.0588
15.2148
15.3587
15.4911
15.6128
15.7242
15.8261
15.9188
16.003
16.079
16.1473
16.2083
16.2625
16.3103
16.352
16.3881
16.4188
16.4446
16.4658
16.4827
16.4957
16.505
16.5109
16.5137
16.5138
16.5113
16.5067
16.5001
16.492
16.4826
16.4723
16.4614
16.4505
16.4397
16.4296
16.4204
16.4126
16.4065
16.4024
16.4005
16.4009
16.4038
16.4092
16.4172
16.4277
16.4406
16.4558
16.4731
16.4923
16.5133
16.5358
16.5595
16.5844
16.6101
16.6364
16.6632
16.6902
16.7173
16.7442
16.771
16.7975
16.8239
16.8499
16.8756
16.901
16.9261
16.9508
16.9751
16.9988
17.0218
17.044
17.0653
17.0857
17.1049
17.1231
17.1401
17.1559
17.1705
17.1838
17.1959
17.2067
17.2162
17.2243
17.2311
17.2364
17.2404
17.2428
17.2436
17.2428
17.2404
17.2364
17.2307
17.2234
17.2145
17.2038
17.1913
17.1771
17.1609
17.1429
17.123
17.101
17.0772
17.0515
17.0242
16.9955
16.9656
16.9347
16.9032
16.8714
16.8399
16.8092
16.78
16.7531
16.7297
16.7107
16.6976
16.691
16.6899
16.6849
1.57214
1.46715
1.34165
1.2266
1.10229
0.962291
0.806082
0.633423
0.444246
0.239109
0.0191258
-0.214105
-0.458455
-0.71132
-0.969509
-1.22919
-1.48599
-1.73479
-1.96959
-2.18369
-2.36963
-2.51915
-2.62314
-2.67139
-2.65284
-2.5561
-2.37096
-2.09059
-1.71332
-1.24312
-0.688348
-0.0601344
0.628805
1.36494
2.13453
2.92422
3.72156
4.5154
5.29611
6.05556
6.78718
7.48567
8.147
8.7688
9.35073
9.89457
10.4037
10.881
11.3274
11.7437
12.1311
12.4914
12.8262
13.1374
13.4264
13.6948
13.9439
14.1751
14.3897
14.5888
14.7733
14.9443
15.1025
15.2487
15.3837
15.508
15.6223
15.727
15.8227
15.9099
15.9889
16.0603
16.1244
16.1816
16.2324
16.2771
16.3161
16.3498
16.3784
16.4024
16.4221
16.4377
16.4497
16.4582
16.4636
16.4662
16.4661
16.4638
16.4595
16.4535
16.4462
16.4379
16.4291
16.42
16.4111
16.4027
16.3953
16.3891
16.3846
16.382
16.3816
16.3835
16.3879
16.3948
16.4043
16.4163
16.4307
16.4474
16.466
16.4864
16.5084
16.5316
16.5561
16.5814
16.6076
16.6343
16.6615
16.6888
16.7162
16.7435
16.7706
16.7974
16.8239
16.85
16.8758
16.9011
16.926
16.9505
16.9744
16.9977
17.0204
17.0422
17.0631
17.0831
17.102
17.1199
17.1368
17.1525
17.1671
17.1805
17.1928
17.2038
17.2136
17.222
17.2292
17.2349
17.2393
17.242
17.2432
17.2428
17.2407
17.237
17.2317
17.2246
17.2157
17.2051
17.1926
17.1783
17.162
17.1439
17.1238
17.1018
17.078
17.0524
17.0252
16.9967
16.9668
16.9359
16.9043
16.8722
16.8402
16.8086
16.7781
16.7493
16.723
16.6997
16.6801
16.6637
16.6482
16.6248
1.15599
1.04144
0.902114
0.77535
0.6401
0.488907
0.320917
0.135363
-0.0683207
-0.289879
-0.528564
-0.783138
-1.05195
-1.33272
-1.6226
-1.91805
-2.21468
-2.50719
-2.78918
-3.05324
-3.29073
-3.49194
-3.64586
-3.73986
-3.75984
-3.69096
-3.51902
-3.23364
-2.83126
-2.31616
-1.69887
-0.994113
-0.219224
0.607263
1.46702
2.34304
3.22009
4.08502
4.92693
5.73701
6.50862
7.23743
7.92168
8.56223
9.16171
9.72316
10.2477
10.736
11.1897
11.6109
12.0017
12.3642
12.7006
13.0127
13.3025
13.5715
13.8215
14.0536
14.2694
14.4697
14.6558
14.8286
14.9889
15.1374
15.2749
15.4019
15.519
15.6268
15.7256
15.816
15.8983
15.9729
16.0403
16.1007
16.1547
16.2027
16.2448
16.2816
16.3133
16.3403
16.363
16.3816
16.3965
16.408
16.4163
16.4217
16.4245
16.4249
16.4233
16.4199
16.4151
16.4092
16.4027
16.3958
16.389
16.3826
16.377
16.3725
16.3695
16.3682
16.369
16.3719
16.3772
16.385
16.3952
16.4079
16.423
16.4403
16.4596
16.4806
16.5031
16.5269
16.5517
16.5775
16.604
16.6311
16.6586
16.6865
16.7143
16.742
16.7694
16.7965
16.8232
16.8494
16.8751
16.9004
16.9251
16.9493
16.973
16.9961
17.0184
17.0399
17.0606
17.0803
17.0991
17.1169
17.1337
17.1495
17.1642
17.1779
17.1904
17.2017
17.2119
17.2207
17.2283
17.2345
17.2392
17.2423
17.2439
17.2438
17.242
17.2386
17.2334
17.2265
17.2177
17.207
17.1945
17.1801
17.1637
17.1455
17.1254
17.1034
17.0796
17.0542
17.0272
16.9988
16.9691
16.9382
16.9064
16.874
16.8414
16.8089
16.777
16.7462
16.7168
16.6891
16.6632
16.6378
16.6097
16.5709
0.742511
0.617153
0.462168
0.320576
0.170282
0.00282237
-0.183131
-0.388582
-0.614325
-0.860572
-1.12709
-1.41301
-1.717
-2.03719
-2.37107
-2.71538
-3.06589
-3.41708
-3.76219
-4.09292
-4.39932
-4.66984
-4.89131
-5.04861
-5.12429
-5.09856
-4.95074
-4.66431
-4.232
-3.65789
-2.95561
-2.14581
-1.25329
-0.304086
0.676684
1.66639
2.64578
3.5991
4.5144
5.38351
6.2022
6.96977
7.68817
8.36016
8.98622
9.567
10.1048
10.6021
11.0619
11.4868
11.8798
12.2434
12.5801
12.8922
13.1818
13.4507
13.7006
13.933
14.1492
14.3505
14.5377
14.712
14.8741
15.0247
15.1646
15.2943
15.4142
15.525
15.627
15.7206
15.8063
15.8843
15.9551
16.019
16.0764
16.1277
16.1731
16.2131
16.2481
16.2783
16.3042
16.326
16.344
16.3586
16.37
16.3785
16.3842
16.3875
16.3887
16.388
16.3858
16.3825
16.3784
16.3738
16.3692
16.3648
16.3611
16.3584
16.3569
16.3571
16.359
16.3631
16.3693
16.3777
16.3885
16.4016
16.417
16.4344
16.4538
16.475
16.4976
16.5215
16.5466
16.5725
16.5993
16.6268
16.6549
16.6832
16.7115
16.7397
16.7675
16.7948
16.8217
16.8479
16.8737
16.8988
16.9234
16.9475
16.9709
16.9938
17.0159
17.0373
17.0579
17.0775
17.0963
17.1142
17.1311
17.1471
17.1621
17.1761
17.189
17.2008
17.2114
17.2207
17.2288
17.2354
17.2406
17.2441
17.246
17.2462
17.2447
17.2415
17.2365
17.2296
17.2208
17.2101
17.1974
17.1829
17.1664
17.1481
17.128
17.1061
17.0825
17.0573
17.0305
17.0023
16.9728
16.9419
16.91
16.8773
16.844
16.8105
16.7771
16.7441
16.7116
16.6796
16.6477
16.614
16.5749
16.5227
0.338189
0.20444
0.0351214
-0.122014
-0.289041
-0.475397
-0.68286
-0.912823
-1.16656
-1.44475
-1.7475
-2.07444
-2.42459
-2.7965
-3.1879
-3.59568
-4.01589
-4.44305
-4.8701
-5.28762
-5.68393
-6.04549
-6.35707
-6.6015
-6.7578
-6.79895
-6.69321
-6.41337
-5.94571
-5.29385
-4.47655
-3.52432
-2.4739
-1.36298
-0.226926
0.904013
2.00625
3.06265
4.0634
5.00422
5.88547
6.70849
7.47232
8.17779
8.82771
9.4255
9.97494
10.4799
10.9443
11.3717
11.7656
12.1291
12.4651
12.7762
13.0647
13.3327
13.5819
13.8139
14.0301
14.2318
14.4198
14.5953
14.759
14.9115
15.0536
15.1858
15.3085
15.4222
15.5274
15.6243
15.7133
15.7948
15.869
15.9365
15.9974
16.0521
16.1009
16.1443
16.1826
16.2161
16.2452
16.2702
16.2915
16.3092
16.3237
16.3352
16.3438
16.3498
16.3536
16.3555
16.3558
16.3547
16.3528
16.3503
16.3476
16.3451
16.3431
16.3419
16.342
16.3435
16.3467
16.3519
16.3591
16.3685
16.38
16.3937
16.4095
16.4273
16.447
16.4683
16.4911
16.5152
16.5404
16.5666
16.5937
16.6216
16.6502
16.6791
16.708
16.7366
16.7647
16.7923
16.8192
16.8456
16.8713
16.8964
16.9209
16.9449
16.9682
16.991
17.0131
17.0344
17.055
17.0748
17.0937
17.1117
17.1289
17.1453
17.1608
17.1753
17.1887
17.2011
17.2123
17.2223
17.2309
17.2381
17.2438
17.2477
17.25
17.2505
17.2492
17.2461
17.2412
17.2343
17.2254
17.2146
17.2018
17.1872
17.1707
17.1523
17.1322
17.1104
17.087
17.062
17.0356
17.0076
16.9782
16.9474
16.9153
16.8822
16.8483
16.8137
16.7788
16.7435
16.708
16.6717
16.6339
16.5925
16.5438
16.4799
-0.0451314
-0.179183
-0.357351
-0.528604
-0.7119
-0.917169
-1.14711
-1.40377
-1.68898
-2.00404
-2.3496
-2.72572
-3.13165
-3.566
-4.0267
-4.51095
-5.01518
-5.53414
-6.06047
-6.58373
-7.09038
-7.56484
-7.99087
-8.35073
-8.62018
-8.76159
-8.72524
-8.46638
-7.96067
-7.21025
-6.24197
-5.10341
-3.85099
-2.53929
-1.21688
0.0783993
1.32239
2.50047
3.60811
4.64236
5.59855
6.47745
7.28236
8.01781
8.68896
9.3012
9.85993
10.3704
10.8375
11.2656
11.6589
12.021
12.3553
12.6645
12.9513
13.2178
13.4659
13.6971
13.913
14.1147
14.3034
14.4798
14.6448
14.7991
14.9432
15.0777
15.2031
15.3197
15.4279
15.5281
15.6205
15.7054
15.7832
15.8541
15.9185
15.9767
16.0291
16.0759
16.1175
16.1544
16.1867
16.215
16.2393
16.2601
16.2776
16.2918
16.3031
16.3117
16.3179
16.3221
16.3245
16.3255
16.3255
16.3248
16.3238
16.3229
16.3223
16.3226
16.3239
16.3267
16.3311
16.3374
16.3457
16.356
16.3684
16.3828
16.3993
16.4177
16.4378
16.4596
16.4827
16.5072
16.5328
16.5595
16.5871
16.6155
16.6446
16.6742
16.7036
16.7326
16.761
16.7888
16.8159
16.8423
16.8681
16.8932
16.9177
16.9416
16.9649
16.9877
17.0098
17.0313
17.052
17.072
17.0912
17.1095
17.1272
17.144
17.16
17.1751
17.1892
17.2022
17.2141
17.2247
17.234
17.2418
17.2479
17.2524
17.255
17.2558
17.2548
17.2518
17.247
17.2401
17.2312
17.2204
17.2076
17.1929
17.1764
17.1582
17.1382
17.1166
17.0934
17.0687
17.0425
17.0147
16.9855
16.9547
16.9225
16.8889
16.8543
16.8186
16.782
16.7445
16.7059
16.6654
16.6221
16.5734
16.5164
16.4425
-0.385894
-0.511074
-0.687545
-0.866519
-1.06194
-1.28339
-1.53448
-1.81801
-2.13639
-2.49124
-2.88344
-3.31301
-3.77927
-4.28087
-4.81598
-5.38233
-5.97697
-6.59563
-7.23101
-7.8716
-8.50181
-9.10452
-9.66445
-10.1666
-10.585
-10.8673
-10.9361
-10.72
-10.1785
-9.31124
-8.15769
-6.79446
-5.30661
-3.76683
-2.23506
-0.753429
0.65829
1.98381
3.20929
4.33277
5.35641
6.28533
7.12627
7.8867
8.57432
9.19666
9.76087
10.2735
10.7406
11.1673
11.5584
11.918
12.2496
12.5564
12.8411
13.1058
13.3525
13.5829
13.7984
14.0002
14.1894
14.3668
14.5331
14.689
14.8351
14.9719
15.0999
15.2193
15.3305
15.4339
15.5295
15.6179
15.6992
15.7736
15.8416
15.9033
15.9591
16.0094
16.0545
16.0946
16.1302
16.1615
16.1889
16.2125
16.2326
16.2494
16.2631
16.2741
16.2825
16.2887
16.293
16.2958
16.2975
16.2984
16.299
16.2995
16.3003
16.3018
16.3044
16.3083
16.3138
16.3211
16.3303
16.3416
16.3548
16.3701
16.3873
16.4064
16.4271
16.4495
16.4732
16.4982
16.5243
16.5514
16.5796
16.6086
16.6384
16.6685
16.6984
16.7278
16.7564
16.7844
16.8116
16.8381
16.864
16.8892
16.9137
16.9377
16.9611
16.984
17.0063
17.028
17.049
17.0693
17.0888
17.1076
17.1257
17.1431
17.1597
17.1754
17.1901
17.2038
17.2163
17.2276
17.2375
17.2458
17.2524
17.2572
17.2601
17.2612
17.2604
17.2576
17.2529
17.2461
17.2373
17.2265
17.2138
17.1993
17.1829
17.1648
17.145
17.1236
17.1007
17.0762
17.0503
17.0227
16.9935
16.9627
16.9303
16.8964
16.861
16.8242
16.786
16.7462
16.7044
16.66
16.6116
16.5567
16.4928
16.4105
-0.653987
-0.760426
-0.920454
-1.09611
-1.29627
-1.52926
-1.79908
-2.10868
-2.46007
-2.85432
-3.29182
-3.77238
-4.29535
-4.85967
-5.46378
-6.10639
-6.78565
-7.49835
-8.23745
-8.99034
-9.73998
-10.4699
-11.1695
-11.8301
-12.4231
-12.8725
-13.0626
-12.8948
-12.3168
-11.33
-9.987
-8.3995
-6.68073
-4.91315
-3.15878
-1.47417
0.104904
1.56264
2.89201
4.09418
5.17526
6.14435
7.01193
7.78884
8.48551
9.11172
9.67632
10.1872
10.6511
11.0741
11.4613
11.8172
12.1456
12.4496
12.732
12.995
13.2407
13.4705
13.686
13.8882
14.0782
14.2569
14.4248
14.5827
14.731
14.8703
15.0009
15.1232
15.2375
15.344
15.4429
15.5347
15.6194
15.6974
15.7688
15.8341
15.8934
15.947
15.9954
16.0387
16.0774
16.1116
16.1416
16.1678
16.1903
16.2094
16.2253
16.2383
16.2487
16.2567
16.2628
16.2672
16.2704
16.2728
16.2747
16.2765
16.2786
16.2813
16.285
16.29
16.2965
16.3048
16.315
16.3271
16.3413
16.3573
16.3752
16.3949
16.4163
16.4393
16.4636
16.4892
16.5159
16.5436
16.5722
16.6018
16.6321
16.6626
16.6928
16.7223
16.7512
16.7793
16.8066
16.8332
16.8592
16.8845
16.9092
16.9333
16.957
16.9801
17.0026
17.0246
17.046
17.0667
17.0867
17.106
17.1246
17.1426
17.1597
17.176
17.1914
17.2057
17.2188
17.2307
17.241
17.2498
17.2568
17.2619
17.2652
17.2665
17.2658
17.2632
17.2585
17.2518
17.2431
17.2325
17.2199
17.2055
17.1894
17.1714
17.1518
17.1306
17.1079
17.0836
17.0578
17.0304
17.0012
16.9703
16.9376
16.9032
16.8671
16.8292
16.7894
16.7475
16.703
16.655
16.6022
16.5419
16.4724
16.3831
-0.812389
-0.886698
-1.01352
-1.1736
-1.37206
-1.61399
-1.9014
-2.23533
-2.61625
-3.04422
-3.5192
-4.04097
-4.60882
-5.22214
-5.88012
-6.58213
-7.32721
-8.11261
-8.93137
-9.77073
-10.6145
-11.4493
-12.2692
-13.0658
-13.7966
-14.3535
-14.5964
-14.4404
-13.8439
-12.807
-11.3782
-9.65194
-7.7541
-5.79516
-3.85938
-2.01129
-0.292952
1.27511
2.6874
3.94845
5.06872
6.06173
6.94199
7.72365
8.41983
9.04232
9.60145
10.1061
10.5637
10.9809
11.3629
11.7143
12.0391
12.3403
12.6208
12.8826
13.1277
13.3577
13.5739
13.7773
13.969
14.1496
14.3198
14.4803
14.6315
14.7738
14.9076
15.0331
15.1508
15.2607
15.3631
15.4584
15.5466
15.6281
15.703
15.7717
15.8343
15.8913
15.9428
15.989
16.0304
16.0672
16.0996
16.128
16.1526
16.1736
16.1913
16.2061
16.2181
16.2276
16.2351
16.241
16.2456
16.2493
16.2525
16.2555
16.2587
16.2626
16.2674
16.2734
16.2809
16.2901
16.3012
16.3142
16.3291
16.3459
16.3645
16.3849
16.4069
16.4304
16.4554
16.4815
16.5088
16.537
16.5662
16.5962
16.6267
16.6573
16.6875
16.7169
16.7457
16.7738
16.8012
16.8279
16.8539
16.8794
16.9042
16.9286
16.9525
16.9759
16.9988
17.0212
17.043
17.0641
17.0847
17.1046
17.1238
17.1423
17.1601
17.177
17.193
17.2078
17.2215
17.2339
17.2447
17.2538
17.2612
17.2666
17.2701
17.2716
17.2711
17.2685
17.264
17.2574
17.2489
17.2384
17.226
17.2118
17.1958
17.178
17.1585
17.1375
17.1149
17.0907
17.065
17.0375
17.0083
16.9772
16.9442
16.9093
16.8725
16.8335
16.7923
16.7485
16.7015
16.6503
16.5936
16.5289
16.4547
16.3596
-0.816276
-0.845969
-0.926554
-1.06521
-1.26126
-1.5114
-1.81331
-2.16581
-2.56813
-3.01968
-3.52006
-4.06903
-4.66614
-5.31092
-6.00256
-6.74024
-7.5228
-8.34732
-9.20721
-10.0911
-10.9847
-11.8756
-12.7548
-13.6027
-14.362
-14.9274
-15.1917
-15.0854
-14.5567
-13.5748
-12.1645
-10.3991
-8.40525
-6.31856
-4.25241
-2.28849
-0.476358
1.16108
2.61993
3.90837
5.04124
6.03628
6.91158
7.68415
8.36924
8.98014
9.5281
10.0226
10.4714
10.8811
11.2571
11.6039
11.9252
12.2242
12.5034
12.7648
13.0103
13.2413
13.4591
13.6648
13.8591
14.0427
14.2163
14.3804
14.5354
14.6816
14.8194
14.9491
15.0708
15.1848
15.2913
15.3905
15.4826
15.5678
15.6464
15.7185
15.7845
15.8445
15.8989
15.9478
15.9916
16.0305
16.0649
16.095
16.1212
16.1437
16.1628
16.1788
16.1921
16.2029
16.2116
16.2187
16.2245
16.2293
16.2336
16.2377
16.242
16.2469
16.2527
16.2597
16.2682
16.2783
16.2902
16.3039
16.3196
16.3371
16.3564
16.3773
16.3998
16.4239
16.4493
16.4759
16.5036
16.5323
16.5619
16.5922
16.6228
16.6532
16.6831
16.7122
16.7406
16.7685
16.7957
16.8224
16.8485
16.874
16.8991
16.9237
16.9479
16.9716
16.995
17.0178
17.0401
17.0618
17.0828
17.1034
17.1232
17.1424
17.1608
17.1783
17.1948
17.2102
17.2244
17.2372
17.2484
17.2579
17.2655
17.2712
17.2749
17.2766
17.2762
17.2738
17.2694
17.263
17.2546
17.2443
17.2321
17.2181
17.2022
17.1845
17.1652
17.1443
17.1218
17.0977
17.0719
17.0444
17.0151
16.9837
16.9504
16.9151
16.8775
16.8375
16.795
16.7494
16.7001
16.6461
16.5861
16.5175
16.4392
16.3395
-0.626491
-0.609636
-0.645231
-0.763015
-0.953588
-1.20563
-1.51401
-1.87623
-2.29065
-2.75619
-3.27199
-3.83757
-4.4522
-5.115
-5.82474
-6.57981
-7.37819
-8.21622
-9.08711
-9.97968
-10.8793
-11.7728
-12.6498
-13.4902
-14.2385
-14.798
-15.0846
-15.0319
-14.5739
-13.6564
-12.2793
-10.5144
-8.49153
-6.35795
-4.24268
-2.2388
-0.401418
1.24569
2.70065
3.97504
5.08739
6.05865
6.90945
7.65856
8.32234
8.91462
9.44685
9.92839
10.3669
10.7686
11.1387
11.4813
11.8001
12.0977
12.3765
12.6385
12.8855
13.1186
13.3391
13.5479
13.7458
13.9335
14.1114
14.28
14.4398
14.591
14.7338
14.8685
14.9953
15.1143
15.2258
15.3297
15.4264
15.516
15.5987
15.6747
15.7442
15.8075
15.8648
15.9163
15.9623
16.0031
16.0391
16.0705
16.0978
16.1213
16.1413
16.1581
16.1722
16.1838
16.1934
16.2013
16.208
16.2137
16.2188
16.2239
16.2291
16.235
16.2417
16.2497
16.259
16.27
16.2827
16.2972
16.3135
16.3315
16.3513
16.3727
16.3956
16.4201
16.4458
16.4727
16.5007
16.5297
16.5594
16.5897
16.6201
16.6502
16.6796
16.7082
16.7362
16.7636
16.7906
16.8171
16.8431
16.8688
16.894
16.9189
16.9434
16.9675
16.9913
17.0146
17.0374
17.0596
17.0813
17.1025
17.123
17.1428
17.1618
17.1798
17.1969
17.2128
17.2274
17.2406
17.2522
17.262
17.2699
17.2758
17.2798
17.2816
17.2815
17.2792
17.275
17.2688
17.2606
17.2504
17.2384
17.2245
17.2087
17.1912
17.172
17.1511
17.1287
17.1046
17.0788
17.0512
17.0217
16.9902
16.9565
16.9206
16.8824
16.8415
16.7977
16.7504
16.6991
16.6426
16.5795
16.5076
16.4259
16.3224
-0.228173
-0.171851
-0.171733
-0.267104
-0.442485
-0.685698
-0.991249
-1.35532
-1.775
-2.24839
-2.77403
-3.35082
-3.9776
-4.65283
-5.37466
-6.14058
-6.94726
-7.78993
-8.66111
-9.54986
-10.4424
-11.3247
-12.1827
-12.9907
-13.693
-14.2041
-14.4576
-14.3968
-13.9481
-13.0501
-11.6972
-9.9595
-7.96695
-5.8692
-3.79774
-1.84616
-0.0678472
1.51646
2.90828
4.12221
5.17904
6.10118
6.90988
7.62393
8.25922
8.82887
9.34355
9.81183
10.2406
10.6356
11.0013
11.3415
11.6593
11.9572
12.2373
12.5015
12.7512
12.9877
13.212
13.4251
13.6275
13.82
14.0029
14.1768
14.342
14.4987
14.6472
14.7876
14.9201
15.0448
15.1618
15.2712
15.3732
15.4679
15.5555
15.6361
15.7099
15.777
15.8378
15.8923
15.9409
15.9839
16.0215
16.0543
16.0826
16.1068
16.1272
16.1445
16.1589
16.1709
16.1809
16.1893
16.1964
16.2026
16.2084
16.2141
16.2201
16.2267
16.2342
16.243
16.2531
16.2649
16.2784
16.2935
16.3104
16.329
16.3491
16.3709
16.3942
16.4189
16.4448
16.4718
16.4999
16.5288
16.5585
16.5885
16.6184
16.648
16.6768
16.7048
16.7323
16.7593
16.7859
16.8122
16.8381
16.8638
16.8892
16.9143
16.9392
16.9637
16.9879
17.0117
17.035
17.0579
17.0803
17.1021
17.1233
17.1437
17.1632
17.1818
17.1993
17.2157
17.2307
17.2442
17.2561
17.2662
17.2744
17.2807
17.2848
17.2869
17.287
17.2849
17.2809
17.2749
17.2669
17.2569
17.245
17.2312
17.2156
17.1981
17.179
17.1581
17.1357
17.1116
17.0857
17.058
17.0283
16.9966
16.9626
16.9263
16.8873
16.8456
16.8006
16.7519
16.6987
16.6399
16.5741
16.4992
16.4145
16.308
0.327516
0.406225
0.423363
0.345285
0.189671
-0.0361596
-0.328812
-0.684654
-1.10071
-1.57428
-2.10326
-2.68576
-3.31945