/*--------------------------------*- C++ -*----------------------------------*\
| =========                 |                                                 |
| \\      /  F ield         | OpenFOAM: The Open Source CFD Toolbox           |
|  \\    /   O peration     | Version:  1.4.2                                 |
|   \\  /    A nd           | Web:      http://www.openfoam.org               |
|    \\/     M anipulation  |                                                 |
\*---------------------------------------------------------------------------*/
FoamFile
{
    version     2.0;
    format      ascii;
    class       surfaceScalarField;
    object      phi;
    location    "50";
}
// * * * * * * * * * * * * * * * * * * * * * * * * * * * * * * * * * * * * * //

dimensions      [0 3 -1 0 0 0 0];

internalField   nonuniform List<scalar> 
24170
(
3.05487e-06
7.90253e-08
3.01221e-06
4.26591e-08
2.98023e-06
3.19796e-08
2.96098e-06
1.92495e-08
2.95196e-06
8.98961e-09
2.95269e-06
-7.35541e-10
2.96189e-06
-9.19444e-09
2.97808e-06
-1.62008e-08
2.99951e-06
-2.14304e-08
3.02426e-06
-2.47381e-08
3.05055e-06
-2.62856e-08
3.07696e-06
-2.64164e-08
3.10259e-06
-2.56296e-08
3.12707e-06
-2.44601e-08
3.15046e-06
-2.33898e-08
3.17357e-06
-2.31142e-08
3.19919e-06
-2.56087e-08
-3.51523e-08
3.23433e-06
3.43823e-06
9.72419e-08
3.42008e-06
6.08016e-08
3.40575e-06
4.62977e-08
3.3983e-06
2.67103e-08
3.3984e-06
8.91319e-09
3.40618e-06
-8.52375e-09
3.4211e-06
-2.41155e-08
3.44208e-06
-3.71702e-08
3.46758e-06
-4.69364e-08
3.49592e-06
-5.30892e-08
3.52559e-06
-5.5949e-08
3.55542e-06
-5.62478e-08
3.58471e-06
-5.49245e-08
3.61313e-06
-5.28771e-08
3.64075e-06
-5.0999e-08
3.668e-06
-5.03742e-08
3.6963e-06
-5.39173e-08
-6.4307e-08
3.72546e-06
3.80626e-06
1.0318e-07
3.79664e-06
7.04132e-08
3.79013e-06
5.27923e-08
3.78885e-06
2.79987e-08
3.79409e-06
3.6652e-09
3.80609e-06
-2.05198e-08
3.8244e-06
-4.24225e-08
3.848e-06
-6.07713e-08
3.87551e-06
-7.44441e-08
3.90546e-06
-8.3041e-08
3.93656e-06
-8.70497e-08
3.96787e-06
-8.75568e-08
3.99879e-06
-8.58424e-08
4.029e-06
-8.30967e-08
4.05849e-06
-8.04784e-08
4.08735e-06
-7.92413e-08
4.11536e-06
-8.1937e-08
-8.96144e-08
4.14067e-06
4.2035e-06
1.04242e-07
4.19882e-06
7.50944e-08
4.19736e-06
5.42544e-08
4.20049e-06
2.48634e-08
4.20959e-06
-5.43147e-09
4.22474e-06
-3.56651e-08
4.24544e-06
-6.3133e-08
4.27072e-06
-8.60452e-08
4.29933e-06
-1.03052e-07
4.33004e-06
-1.13757e-07
4.36183e-06
-1.1884e-07
4.39393e-06
-1.19659e-07
4.42583e-06
-1.17744e-07
4.45722e-06
-1.14499e-07
4.48794e-06
-1.11208e-07
4.51782e-06
-1.09127e-07
4.54607e-06
-1.10198e-07
-1.14731e-07
4.57119e-06
4.63916e-06
1.02387e-07
4.63824e-06
7.60199e-08
4.64068e-06
5.18112e-08
4.64745e-06
1.80977e-08
4.65968e-06
-1.76659e-08
4.67726e-06
-5.32486e-08
4.6996e-06
-8.54663e-08
4.72572e-06
-1.12168e-07
4.7546e-06
-1.31928e-07
4.78528e-06
-1.44448e-07
4.81702e-06
-1.50581e-07
4.84922e-06
-1.51859e-07
4.88145e-06
-1.4997e-07
4.91337e-06
-1.46423e-07
4.94473e-06
-1.42565e-07
4.97518e-06
-1.39578e-07
5.00388e-06
-1.38892e-07
-1.40656e-07
5.0298e-06
5.11881e-06
9.81698e-08
5.12122e-06
7.36107e-08
5.12704e-06
4.59934e-08
5.137e-06
8.13769e-09
5.15186e-06
-3.25246e-08
5.17125e-06
-7.26433e-08
5.19446e-06
-1.08671e-07
5.22059e-06
-1.38305e-07
5.24887e-06
-1.60208e-07
5.27867e-06
-1.74246e-07
5.3095e-06
-1.81405e-07
5.34093e-06
-1.83293e-07
5.37261e-06
-1.81647e-07
5.4042e-06
-1.78017e-07
5.43539e-06
-1.73748e-07
5.46576e-06
-1.69948e-07
5.49456e-06
-1.67696e-07
-1.67228e-07
5.52113e-06
5.6476e-06
9.1582e-08
5.65316e-06
6.80452e-08
5.66216e-06
3.69908e-08
5.67503e-06
-4.72788e-09
5.69208e-06
-4.95729e-08
5.71267e-06
-9.32345e-08
5.73599e-06
-1.31991e-07
5.76129e-06
-1.63605e-07
5.78807e-06
-1.86988e-07
5.81604e-06
-2.02214e-07
5.84497e-06
-2.10332e-07
5.87461e-06
-2.1294e-07
5.9047e-06
-2.11732e-07
5.93491e-06
-2.08229e-07
5.96491e-06
-2.03744e-07
5.99428e-06
-1.99324e-07
6.02243e-06
-1.95848e-07
-1.93689e-07
6.04889e-06
4.41252e-06
8.51713e-08
4.4182e-06
6.2363e-08
4.42669e-06
2.8499e-08
4.43751e-06
-1.55451e-08
4.45083e-06
-6.28958e-08
4.46597e-06
-1.08369e-07
4.48233e-06
-1.48356e-07
4.4995e-06
-1.80768e-07
4.51728e-06
-2.04773e-07
4.53567e-06
-2.206e-07
4.55466e-06
-2.29315e-07
4.57418e-06
-2.32454e-07
4.59408e-06
-2.31637e-07
4.61419e-06
-2.28336e-07
4.63425e-06
-2.23812e-07
4.654e-06
-2.19072e-07
4.67309e-06
-2.14943e-07
-2.11814e-07
4.69122e-06
5.14834e-06
7.66852e-08
5.15648e-06
5.42296e-08
5.1674e-06
1.75699e-08
5.18053e-06
-2.86686e-08
5.19567e-06
-7.80346e-08
5.212e-06
-1.24699e-07
5.2289e-06
-1.65264e-07
5.24605e-06
-1.97913e-07
5.26341e-06
-2.22133e-07
5.28112e-06
-2.38316e-07
5.29932e-06
-2.47516e-07
5.31803e-06
-2.51166e-07
5.33718e-06
-2.50779e-07
5.35659e-06
-2.4775e-07
5.37605e-06
-2.43268e-07
5.39528e-06
-2.38301e-07
5.41398e-06
-2.33642e-07
-2.29685e-07
5.43186e-06
6.00675e-06
6.57307e-08
6.01789e-06
4.30856e-08
6.03158e-06
3.87446e-09
6.04713e-06
-4.42168e-08
6.0639e-06
-9.48023e-08
6.081e-06
-1.41799e-07
6.09784e-06
-1.82109e-07
6.11423e-06
-2.14305e-07
6.1303e-06
-2.38203e-07
6.14634e-06
-2.54356e-07
6.16262e-06
-2.63796e-07
6.17927e-06
-2.67823e-07
6.19631e-06
-2.67811e-07
6.2136e-06
-2.65044e-07
6.23097e-06
-2.60636e-07
6.24817e-06
-2.55502e-07
6.26494e-06
-2.50407e-07
-2.45744e-07
6.28099e-06
7.00805e-06
5.19392e-08
7.02274e-06
2.84009e-08
7.03955e-06
-1.29418e-08
7.05755e-06
-6.22081e-08
7.07566e-06
-1.1292e-07
7.09303e-06
-1.59162e-07
7.10916e-06
-1.98243e-07
7.12404e-06
-2.29184e-07
7.13796e-06
-2.5213e-07
7.15135e-06
-2.67756e-07
7.16461e-06
-2.77049e-07
7.17796e-06
-2.81172e-07
7.19149e-06
-2.81339e-07
7.20516e-06
-2.78707e-07
7.21882e-06
-2.74298e-07
7.23229e-06
-2.6897e-07
7.24533e-06
-2.63452e-07
-2.58128e-07
7.25771e-06
8.17591e-06
3.50376e-08
8.19467e-06
9.64774e-09
8.2149e-06
-3.3178e-08
8.23524e-06
-8.2541e-08
8.25431e-06
-1.31995e-07
8.27136e-06
-1.76217e-07
8.28613e-06
-2.1301e-07
8.29879e-06
-2.41843e-07
8.30979e-06
-2.63134e-07
8.31968e-06
-2.77645e-07
8.32892e-06
-2.86294e-07
8.33784e-06
-2.90097e-07
8.3466e-06
-2.90102e-07
8.35522e-06
-2.87329e-07
8.36362e-06
-2.827e-07
8.37166e-06
-2.77012e-07
8.37916e-06
-2.70945e-07
-2.64884e-07
8.38591e-06
9.53804e-06
1.47226e-08
9.56129e-06
-1.36012e-08
9.58507e-06
-5.69559e-08
9.60744e-06
-1.04909e-07
9.62695e-06
-1.51512e-07
9.6431e-06
-1.9236e-07
9.65587e-06
-2.25782e-07
9.66567e-06
-2.51641e-07
9.67308e-06
-2.7054e-07
9.67872e-06
-2.8328e-07
9.68312e-06
-2.9069e-07
9.68665e-06
-2.93632e-07
9.68954e-06
-2.92993e-07
9.69186e-06
-2.89649e-07
9.69358e-06
-2.84419e-07
9.69459e-06
-2.78029e-07
9.69476e-06
-2.7111e-07
-2.64051e-07
9.69393e-06
1.11271e-05
-9.70848e-09
1.1155e-05
-4.14567e-08
1.1182e-05
-8.39557e-08
1.12058e-05
-1.28696e-07
1.12251e-05
-1.70812e-07
1.12397e-05
-2.06972e-07
1.12499e-05
-2.35996e-07
1.12563e-05
-2.58023e-07
1.12595e-05
-2.73763e-07
1.12602e-05
-2.84004e-07
1.1259e-05
-2.8947e-07
1.12563e-05
-2.90873e-07
1.12522e-05
-2.88939e-07
1.1247e-05
-2.84405e-07
1.12405e-05
-2.77981e-07
1.12328e-05
-2.70326e-07
1.12237e-05
-2.62013e-07
-2.53435e-07
1.12131e-05
1.29815e-05
-3.95385e-08
1.30135e-05
-7.34848e-08
1.30427e-05
-1.13164e-07
1.30669e-05
-1.52891e-07
1.30851e-05
-1.89076e-07
1.30976e-05
-2.19413e-07
1.31047e-05
-2.4312e-07
1.31072e-05
-2.60487e-07
1.31057e-05
-2.72243e-07
1.31008e-05
-2.79122e-07
1.30931e-05
-2.81752e-07
1.30829e-05
-2.80701e-07
1.30705e-05
-2.76548e-07
1.3056e-05
-2.69899e-07
1.30394e-05
-2.61369e-07
1.30206e-05
-2.51547e-07
1.29995e-05
-2.40957e-07
-2.30004e-07
1.29761e-05
1.51447e-05
-7.57674e-08
1.51798e-05
-1.08564e-07
1.52095e-05
-1.42953e-07
1.52328e-05
-1.7614e-07
1.52491e-05
-2.05348e-07
1.52587e-05
-2.29016e-07
1.52622e-05
-2.46635e-07
1.52602e-05
-2.58534e-07
1.52534e-05
-2.65377e-07
1.52421e-05
-2.6781e-07
1.52267e-05
-2.66363e-07
1.52075e-05
-2.61502e-07
1.51846e-05
-2.53701e-07
1.51582e-05
-2.43474e-07
1.51282e-05
-2.31377e-07
1.50946e-05
-2.17963e-07
1.50574e-05
-2.03733e-07
-1.89096e-07
1.50165e-05
1.76658e-05
-1.17098e-07
1.77018e-05
-1.44621e-07
1.77302e-05
-1.71341e-07
1.7751e-05
-1.96952e-07
1.77642e-05
-2.18571e-07
1.77702e-05
-2.34984e-07
1.77694e-05
-2.45854e-07
1.77623e-05
-2.51447e-07
1.77492e-05
-2.52272e-07
1.77303e-05
-2.48832e-07
1.77055e-05
-2.41565e-07
1.76748e-05
-2.30889e-07
1.76384e-05
-2.17262e-07
1.75961e-05
-2.01215e-07
1.75481e-05
-1.83342e-07
1.74944e-05
-1.64254e-07
1.74352e-05
-1.44514e-07
-1.24563e-07
1.73707e-05
1.78619e-05
-1.52783e-07
1.7891e-05
-1.73783e-07
1.79128e-05
-1.93078e-07
1.79276e-05
-2.11784e-07
1.79356e-05
-2.26537e-07
1.79368e-05
-2.3624e-07
1.79316e-05
-2.40641e-07
1.79201e-05
-2.39889e-07
1.79021e-05
-2.34302e-07
1.78775e-05
-2.24244e-07
1.7846e-05
-2.10102e-07
1.78075e-05
-1.92338e-07
1.77618e-05
-1.71523e-07
1.77089e-05
-1.48354e-07
1.76492e-05
-1.23623e-07
1.75831e-05
-9.81463e-08
1.75112e-05
-7.26881e-08
-4.7883e-08
1.74346e-05
1.59032e-05
-1.74633e-07
1.59213e-05
-1.9193e-07
1.59346e-05
-2.06305e-07
1.59426e-05
-2.19813e-07
1.59452e-05
-2.29115e-07
1.59422e-05
-2.33303e-07
1.59338e-05
-2.32175e-07
1.59197e-05
-2.25801e-07
1.58998e-05
-2.14389e-07
1.58738e-05
-1.98251e-07
1.58415e-05
-1.77814e-07
1.58028e-05
-1.53669e-07
1.57579e-05
-1.26595e-07
1.57071e-05
-9.75415e-08
1.5651e-05
-6.75693e-08
1.55906e-05
-3.77535e-08
1.5527e-05
-9.09485e-09
1.75201e-08
1.54616e-05
1.4157e-05
-1.82993e-07
1.41658e-05
-2.0072e-07
1.41721e-05
-2.12599e-07
1.41746e-05
-2.22293e-07
1.41727e-05
-2.27238e-07
1.41663e-05
-2.26862e-07
1.41552e-05
-2.21074e-07
1.41393e-05
-2.0995e-07
1.41186e-05
-1.93699e-07
1.4093e-05
-1.72666e-07
1.40626e-05
-1.4739e-07
1.40276e-05
-1.18632e-07
1.39884e-05
-8.73886e-08
1.39457e-05
-5.48463e-08
1.39004e-05
-2.22813e-08
1.38536e-05
9.05915e-09
1.38064e-05
3.80667e-08
6.37954e-08
1.37601e-05
1.26022e-05
-1.80119e-07
1.26032e-05
-2.01773e-07
1.26036e-05
-2.12979e-07
1.26012e-05
-2.19878e-07
1.25953e-05
-2.21349e-07
1.25857e-05
-2.17282e-07
1.25724e-05
-2.0778e-07
1.25555e-05
-1.93019e-07
1.2535e-05
-1.73279e-07
1.25114e-05
-1.48993e-07
1.24848e-05
-1.20808e-07
1.24558e-05
-8.96265e-08
1.2425e-05
-5.65949e-08
1.23932e-05
-2.303e-08
1.23612e-05
9.70264e-09
1.23299e-05
4.03375e-08
1.23001e-05
6.78418e-08
9.14365e-08
1.22725e-05
1.12189e-05
-1.69222e-07
1.12137e-05
-1.96561e-07
1.12089e-05
-2.0818e-07
1.1202e-05
-2.13012e-07
1.11924e-05
-2.11723e-07
1.11799e-05
-2.04804e-07
1.11648e-05
-1.92622e-07
1.11472e-05
-1.75495e-07
1.11277e-05
-1.53793e-07
1.11068e-05
-1.28018e-07
1.10849e-05
-9.88855e-08
1.10626e-05
-6.73554e-08
1.10406e-05
-3.46136e-08
1.10195e-05
-1.98509e-09
1.10001e-05
2.91992e-08
1.09826e-05
5.77667e-08
1.09676e-05
8.28541e-08
1.03927e-07
1.09551e-05
9.98903e-06
-1.53641e-07
9.9789e-06
-1.86426e-07
9.96951e-06
-1.98781e-07
9.9585e-06
-2.02016e-07
9.94534e-06
-1.98558e-07
9.93014e-06
-1.89599e-07
9.91331e-06
-1.75793e-07
9.89542e-06
-1.57592e-07
9.87705e-06
-1.35423e-07
9.85882e-06
-1.09803e-07
9.84138e-06
-8.14409e-08
9.82529e-06
-5.12699e-08
9.81109e-06
-2.04146e-08
9.79923e-06
9.88409e-09
9.79002e-06
3.841e-08
9.78365e-06
6.41292e-08
9.78016e-06
8.63428e-08
1.04736e-07
9.77935e-06
8.89577e-06
-1.36318e-07
8.88189e-06
-1.72542e-07
8.86838e-06
-1.85273e-07
8.85348e-06
-1.87123e-07
8.83694e-06
-1.8201e-07
8.81913e-06
-1.71786e-07
8.8007e-06
-1.57369e-07
8.78238e-06
-1.39281e-07
8.76492e-06
-1.17958e-07
8.74899e-06
-9.38763e-08
8.73523e-06
-6.76726e-08
8.72413e-06
-4.01751e-08
8.71609e-06
-1.23718e-08
8.71132e-06
1.46472e-08
8.70992e-06
3.98135e-08
8.71182e-06
6.22264e-08
8.71686e-06
8.1301e-08
9.6879e-08
8.72472e-06
7.92388e-06
-1.19523e-07
7.90714e-06
-1.55792e-07
7.88987e-06
-1.68018e-07
7.87126e-06
-1.68521e-07
7.85145e-06
-1.62207e-07
7.83109e-06
-1.51428e-07
7.81102e-06
-1.37292e-07
7.79209e-06
-1.20341e-07
7.77509e-06
-1.00954e-07
7.76072e-06
-7.95129e-08
7.74956e-06
-5.65206e-08
7.74203e-06
-3.26485e-08
7.73837e-06
-8.70737e-09
7.73862e-06
1.43944e-08
7.74269e-06
3.57487e-08
7.75034e-06
5.45739e-08
7.76128e-06
7.03594e-08
8.303e-08
7.77513e-06
7.05955e-06
-1.04746e-07
7.04049e-06
-1.3673e-07
7.01965e-06
-1.47178e-07
6.99741e-06
-1.46275e-07
6.9744e-06
-1.39197e-07
6.95151e-06
-1.28538e-07
6.92969e-06
-1.15473e-07
6.90983e-06
-1.00494e-07
6.89274e-06
-8.38725e-08
6.87909e-06
-6.58694e-08
6.8694e-06
-4.68286e-08
6.86399e-06
-2.724e-08
6.863e-06
-7.71183e-09
6.86635e-06
1.10473e-08
6.87379e-06
2.83013e-08
6.88498e-06
4.33873e-08
6.89949e-06
5.58491e-08
6.56121e-08
6.9169e-06
6.29024e-06
-9.24645e-08
6.26887e-06
-1.15386e-07
6.24433e-06
-1.22631e-07
6.21833e-06
-1.20272e-07
6.19204e-06
-1.12908e-07
6.16651e-06
-1.03018e-07
6.14274e-06
-9.17066e-08
6.1216e-06
-7.93607e-08
6.10384e-06
-6.61142e-08
6.09008e-06
-5.21038e-08
6.08075e-06
-3.75029e-08
6.07613e-06
-2.2614e-08
6.07625e-06
-7.8422e-09
6.08097e-06
6.31966e-09
6.08996e-06
1.93139e-08
6.10274e-06
3.06055e-08
6.1188e-06
3.97932e-08
4.6735e-08
6.13767e-06
5.60408e-06
-8.16259e-08
5.57944e-06
-9.07447e-08
5.55032e-06
-9.35163e-08
5.51991e-06
-8.9868e-08
5.48985e-06
-8.28488e-08
5.4613e-06
-7.44529e-08
5.43519e-06
-6.5581e-08
5.41228e-06
-5.64599e-08
5.39324e-06
-4.70656e-08
5.37854e-06
-3.74156e-08
5.36857e-06
-2.75353e-08
5.36352e-06
-1.75604e-08
5.36339e-06
-7.7148e-09
5.36798e-06
1.72309e-09
5.37691e-06
1.03795e-08
5.38963e-06
1.78755e-08
5.40553e-06
2.38913e-08
2.82098e-08
5.42405e-06
4.98704e-06
-6.63788e-08
4.95513e-06
-5.8843e-08
4.91846e-06
-5.68267e-08
4.88143e-06
-5.28319e-08
4.84598e-06
-4.74052e-08
4.81319e-06
-4.16807e-08
4.78378e-06
-3.61798e-08
4.75825e-06
-3.09493e-08
4.73704e-06
-2.5847e-08
4.72047e-06
-2.08335e-08
4.70877e-06
-1.58407e-08
4.70207e-06
-1.08693e-08
4.70034e-06
-6.00024e-09
4.70337e-06
-1.30372e-09
4.71074e-06
3.01382e-09
4.72188e-06
6.72803e-09
4.7361e-06
9.66572e-09
1.15829e-08
4.75273e-06
4.39017e-06
4.33132e-06
4.27448e-06
4.22164e-06
4.17424e-06
4.13255e-06
4.09638e-06
4.06543e-06
4.03958e-06
4.01875e-06
4.0029e-06
3.99203e-06
3.98604e-06
3.98473e-06
3.98774e-06
3.99447e-06
4.00414e-06
4.01573e-06
-2.56298e-07
2.56341e-07
-5.40218e-07
2.83887e-07
-8.16661e-07
2.76436e-07
-1.07847e-06
2.61816e-07
-1.3255e-06
2.47005e-07
-1.5586e-06
2.33102e-07
-1.77881e-06
2.20191e-07
-1.98702e-06
2.08201e-07
-2.184e-06
1.97005e-07
-2.37045e-06
1.86457e-07
-2.54685e-06
1.76401e-07
-2.71352e-06
1.6668e-07
-2.87066e-06
1.57144e-07
-3.0183e-06
1.47653e-07
-3.15637e-06
1.3808e-07
-3.28468e-06
1.28314e-07
-3.40292e-06
1.18258e-07
-3.51073e-06
1.07822e-07
-3.60766e-06
9.69324e-08
-3.69322e-06
8.55415e-08
-3.76684e-06
7.36139e-08
-3.82799e-06
6.11328e-08
-3.87611e-06
4.81033e-08
-3.91069e-06
3.45574e-08
-3.93129e-06
2.05775e-08
-3.93763e-06
6.33009e-09
-3.92969e-06
-7.95565e-09
-3.90755e-06
-2.21531e-08
-3.87139e-06
-3.61552e-08
-3.82162e-06
-4.97666e-08
-3.75883e-06
-6.27955e-08
-3.68376e-06
-7.50837e-08
-3.59724e-06
-8.65154e-08
-3.50021e-06
-9.70135e-08
-3.39366e-06
-1.06535e-07
-3.2786e-06
-1.15059e-07
-3.15605e-06
-1.22573e-07
-3.02698e-06
-1.29075e-07
-2.89241e-06
-1.34578e-07
-2.7533e-06
-1.39109e-07
-2.6106e-06
-1.427e-07
-2.46522e-06
-1.45384e-07
-2.318e-06
-1.47206e-07
-2.16979e-06
-1.48217e-07
-2.02132e-06
-1.48475e-07
-1.87327e-06
-1.48057e-07
-1.72624e-06
-1.47045e-07
-1.58072e-06
-1.4553e-07
-1.43711e-06
-1.43616e-07
-1.29573e-06
-1.41392e-07
-1.1568e-06
-1.38925e-07
-1.02052e-06
-1.36264e-07
-8.87082e-07
-1.33429e-07
-7.56618e-07
-1.30436e-07
-6.29215e-07
-1.27356e-07
-5.05094e-07
-1.24086e-07
-3.83898e-07
-1.21183e-07
-2.64342e-07
-1.19553e-07
-1.45541e-07
-1.18811e-07
-2.73531e-08
-1.18224e-07
9.01069e-08
-1.17501e-07
2.06068e-07
-1.15972e-07
3.19645e-07
-1.13574e-07
4.30482e-07
-1.10838e-07
5.38464e-07
-1.0797e-07
6.43563e-07
-1.05076e-07
7.45794e-07
-1.0222e-07
8.45218e-07
-9.94325e-08
9.41924e-07
-9.67237e-08
1.03601e-06
-9.40945e-08
1.12756e-06
-9.15519e-08
1.21666e-06
-8.91028e-08
1.3034e-06
-8.67442e-08
1.38786e-06
-8.44687e-08
1.47014e-06
-8.22699e-08
1.55029e-06
-8.01403e-08
1.62837e-06
-7.80679e-08
1.70441e-06
-7.60373e-08
1.77845e-06
-7.40311e-08
1.85048e-06
-7.20327e-08
1.9205e-06
-7.00244e-08
1.98847e-06
-6.79869e-08
2.05436e-06
-6.59023e-08
2.11812e-06
-6.37584e-08
2.17967e-06
-6.15479e-08
2.23893e-06
-5.92596e-08
2.2958e-06
-5.68771e-08
2.35019e-06
-5.43874e-08
2.40198e-06
-5.17884e-08
2.45107e-06
-4.90862e-08
2.49735e-06
-4.62841e-08
2.54073e-06
-4.3382e-08
2.58112e-06
-4.03854e-08
2.61845e-06
-3.73133e-08
2.65266e-06
-3.41946e-08
2.68373e-06
-3.10572e-08
2.71166e-06
-2.79224e-08
2.73647e-06
-2.48102e-08
2.75823e-06
-2.17494e-08
2.77703e-06
-1.87777e-08
2.79296e-06
-1.59326e-08
2.8062e-06
-1.32419e-08
2.81691e-06
-1.07239e-08
2.82529e-06
-8.39478e-09
2.83156e-06
-6.27354e-09
2.83594e-06
-4.37901e-09
2.83866e-06
-2.72174e-09
2.83997e-06
-1.30368e-09
2.84011e-06
-1.3517e-10
2.83932e-06
7.96586e-10
2.83781e-06
1.52787e-09
2.83574e-06
2.07854e-09
2.83327e-06
2.46623e-09
2.83056e-06
2.71057e-09
2.82774e-06
2.82877e-09
2.82492e-06
2.83337e-09
2.82219e-06
2.73416e-09
2.81965e-06
2.54273e-09
2.81738e-06
2.27513e-09
2.81543e-06
1.94594e-09
2.81387e-06
1.56608e-09
2.81274e-06
1.13809e-09
2.81208e-06
6.67571e-10
2.81191e-06
1.75303e-10
2.81224e-06
-3.21289e-10
2.81306e-06
-8.17251e-10
2.81438e-06
-1.31412e-09
2.81619e-06
-1.8142e-09
2.8185e-06
-2.31506e-09
2.82132e-06
-2.81042e-09
2.82462e-06
-3.29886e-09
2.82843e-06
-3.78788e-09
2.83273e-06
-4.28977e-09
2.83754e-06
-4.8123e-09
2.84289e-06
-5.35261e-09
2.84878e-06
-5.89877e-09
2.85522e-06
-6.43748e-09
2.8622e-06
-6.96125e-09
2.86969e-06
-7.46994e-09
2.87767e-06
-7.96424e-09
2.88611e-06
-8.43558e-09
2.89496e-06
-8.86304e-09
2.90418e-06
-9.22413e-09
2.91369e-06
-9.5093e-09
2.92342e-06
-9.72347e-09
2.9333e-06
-9.87257e-09
2.94326e-06
-9.95432e-09
2.95322e-06
-9.96484e-09
2.96313e-06
-9.90682e-09
2.97293e-06
-9.78724e-09
2.98256e-06
-9.61731e-09
2.99199e-06
-9.41431e-09
3.00118e-06
-9.18984e-09
3.01013e-06
-8.94569e-09
3.01882e-06
-8.69107e-09
3.02726e-06
-8.43878e-09
3.03546e-06
-8.19085e-09
3.04341e-06
-7.94867e-09
3.05113e-06
-7.71245e-09
3.05861e-06
-7.47893e-09
3.06586e-06
-7.24136e-09
3.07285e-06
-6.9844e-09
3.07956e-06
-6.69676e-09
3.08593e-06
-6.36219e-09
3.0919e-06
-5.97117e-09
3.09738e-06
-5.49187e-09
3.10223e-06
-4.86626e-09
3.10632e-06
-4.08424e-09
3.10944e-06
-3.12571e-09
3.11141e-06
-1.97352e-09
3.11199e-06
-5.9198e-10
3.11083e-06
1.15307e-09
3.10743e-06
3.3988e-09
3.10105e-06
6.36377e-09
3.09062e-06
1.04361e-08
3.07429e-06
1.63311e-08
3.04878e-06
2.55027e-08
3.00732e-06
4.14363e-08
2.93345e-06
7.38514e-08
1.58129e-07
2.77531e-06
-2.1566e-07
4.7199e-07
-4.17731e-07
4.85944e-07
-6.19071e-07
4.77783e-07
-8.19674e-07
4.6244e-07
-1.01712e-06
4.44473e-07
-1.20995e-06
4.25944e-07
-1.39735e-06
4.07601e-07
-1.57888e-06
3.89702e-07
-1.75417e-06
3.72287e-07
-1.923e-06
3.55274e-07
-2.08513e-06
3.38514e-07
-2.2403e-06
3.21828e-07
-2.3882e-06
3.05029e-07
-2.52851e-06
2.87938e-07
-2.66083e-06
2.70391e-07
-2.78476e-06
2.52227e-07
-2.89984e-06
2.33312e-07
-3.00555e-06
2.13525e-07
-3.10138e-06
1.92763e-07
-3.18678e-06
1.7095e-07
-3.26118e-06
1.48034e-07
-3.32401e-06
1.23992e-07
-3.37471e-06
9.88403e-08
-3.41279e-06
7.26594e-08
-3.4378e-06
4.5606e-08
-3.44937e-06
1.7918e-08
-3.44724e-06
-1.00744e-08
-3.43133e-06
-3.80544e-08
-3.40176e-06
-6.57202e-08
-3.35883e-06
-9.26917e-08
-3.30302e-06
-1.18602e-07
-3.23497e-06
-1.43141e-07
-3.15541e-06
-1.66076e-07
-3.06517e-06
-1.87243e-07
-2.96518e-06
-2.06533e-07
-2.85636e-06
-2.23872e-07
-2.73972e-06
-2.39218e-07
-2.61625e-06
-2.52549e-07
-2.48696e-06
-2.63867e-07
-2.35288e-06
-2.73195e-07
-2.21499e-06
-2.8059e-07
-2.07424e-06
-2.86133e-07
-1.93151e-06
-2.89929e-07
-1.78762e-06
-2.92111e-07
-1.64326e-06
-2.92827e-07
-1.49905e-06
-2.92244e-07
-1.35552e-06
-2.90544e-07
-1.21311e-06
-2.87912e-07
-1.07218e-06
-2.84525e-07
-9.33015e-07
-2.80559e-07
-7.95774e-07
-2.76176e-07
-6.60503e-07
-2.71556e-07
-5.27096e-07
-2.66863e-07
-3.95325e-07
-2.62235e-07
-2.64594e-07
-2.58118e-07
-1.3399e-07
-2.54721e-07
-3.87577e-09
-2.51312e-07
1.24397e-07
-2.4783e-07
2.49968e-07
-2.44375e-07
3.72398e-07
-2.40624e-07
4.91296e-07
-2.36354e-07
6.06916e-07
-2.31573e-07
7.1972e-07
-2.26389e-07
8.29853e-07
-2.20992e-07
9.37383e-07
-2.15524e-07
1.04236e-06
-2.10077e-07
1.14481e-06
-2.04709e-07
1.24482e-06
-1.99455e-07
1.34243e-06
-1.94336e-07
1.43771e-06
-1.89369e-07
1.53073e-06
-1.84559e-07
1.62153e-06
-1.79903e-07
1.71016e-06
-1.75391e-07
1.79669e-06
-1.71012e-07
1.88117e-06
-1.66756e-07
1.96362e-06
-1.62607e-07
2.04409e-06
-1.58543e-07
2.12259e-06
-1.54539e-07
2.19913e-06
-1.50569e-07
2.27371e-06
-1.46606e-07
2.3463e-06
-1.42615e-07
2.41687e-06
-1.38563e-07
2.48539e-06
-1.3442e-07
2.55178e-06
-1.30159e-07
2.61598e-06
-1.25757e-07
2.67789e-06
-1.21185e-07
2.73743e-06
-1.16423e-07
2.79451e-06
-1.11458e-07
2.84902e-06
-1.06287e-07
2.90085e-06
-1.00911e-07
2.9499e-06
-9.53319e-08
2.99609e-06
-8.95576e-08
3.03934e-06
-8.36104e-08
3.07956e-06
-7.75233e-08
3.11671e-06
-7.13348e-08
3.15073e-06
-6.50847e-08
3.18163e-06
-5.88165e-08
3.20942e-06
-5.2583e-08
3.23414e-06
-4.64452e-08
3.25584e-06
-4.04663e-08
3.27461e-06
-3.4703e-08
3.29057e-06
-2.92035e-08
3.30386e-06
-2.40109e-08
3.31464e-06
-1.91665e-08
3.32308e-06
-1.47078e-08
3.32937e-06
-1.06624e-08
3.33369e-06
-7.04408e-09
3.33625e-06
-3.85787e-09
3.33724e-06
-1.11332e-09
3.33684e-06
1.20248e-09
3.33525e-06
3.12985e-09
3.33263e-06
4.70373e-09
3.32914e-06
5.9562e-09
3.32495e-06
6.91579e-09
3.32019e-06
7.60628e-09
3.31499e-06
8.04822e-09
3.30947e-06
8.26296e-09
3.30374e-06
8.27397e-09
3.29792e-06
8.10455e-09
3.2921e-06
7.77459e-09
3.28638e-06
7.29893e-09
3.28084e-06
6.68985e-09
3.27556e-06
5.96017e-09
3.27062e-06
5.12188e-09
3.26612e-06
4.18568e-09
3.26215e-06
3.15764e-09
3.2588e-06
2.04018e-09
3.25614e-06
8.42772e-10
3.25425e-06
-4.15329e-10
3.25317e-06
-1.71844e-09
3.25295e-06
-3.06185e-09
3.25362e-06
-4.4454e-09
3.25519e-06
-5.8673e-09
3.25768e-06
-7.31866e-09
3.2611e-06
-8.78437e-09
3.26545e-06
-1.02464e-08
3.27072e-06
-1.1686e-08
3.27687e-06
-1.30864e-08
3.28384e-06
-1.44308e-08
3.29157e-06
-1.5699e-08
3.29999e-06
-1.6863e-08
3.30901e-06
-1.7892e-08
3.31856e-06
-1.87626e-08
3.32853e-06
-1.94644e-08
3.33881e-06
-1.99979e-08
3.34932e-06
-2.03659e-08
3.35994e-06
-2.05689e-08
3.37058e-06
-2.06071e-08
3.38118e-06
-2.0492e-08
3.39166e-06
-2.02472e-08
3.40196e-06
-1.98987e-08
3.41203e-06
-1.94697e-08
3.42183e-06
-1.89835e-08
3.43134e-06
-1.84573e-08
3.44055e-06
-1.79033e-08
3.44946e-06
-1.73376e-08
3.45806e-06
-1.67792e-08
3.46637e-06
-1.62404e-08
3.47438e-06
-1.57161e-08
3.48211e-06
-1.51958e-08
3.48956e-06
-1.46726e-08
3.49669e-06
-1.41182e-08
3.50349e-06
-1.34968e-08
3.5099e-06
-1.27779e-08
3.51582e-06
-1.19152e-08
3.52117e-06
-1.08484e-08
3.52581e-06
-9.50762e-09
3.52957e-06
-7.83969e-09
3.53222e-06
-5.78493e-09
3.53351e-06
-3.26559e-09
3.53311e-06
-1.81511e-10
3.53063e-06
3.63125e-09
3.52562e-06
8.39748e-09
3.51746e-06
1.45148e-08
3.50524e-06
2.26599e-08
3.48741e-06
3.41301e-08
3.46133e-06
5.15563e-08
3.42222e-06
8.05073e-08
3.362e-06
1.34061e-07
2.38145e-07
3.28195e-06
-1.50002e-07
6.22001e-07
-3.02971e-07
6.38871e-07
-4.57252e-07
6.32038e-07
-6.13561e-07
6.18736e-07
-7.71398e-07
6.02292e-07
-9.29938e-07
5.84452e-07
-1.0883e-06
5.65959e-07
-1.24568e-06
5.47079e-07
-1.40125e-06
5.27866e-07
-1.55422e-06
5.08256e-07
-1.70382e-06
4.88121e-07
-1.8493e-06
4.67311e-07
-1.98993e-06
4.45672e-07
-2.12502e-06
4.23042e-07
-2.2539e-06
3.99273e-07
-2.37589e-06
3.74229e-07
-2.49035e-06
3.47779e-07
-2.59663e-06
3.198e-07
-2.69406e-06
2.9019e-07
-2.78198e-06
2.58874e-07
-2.85976e-06
2.25802e-07
-2.92675e-06
1.90966e-07
-2.98232e-06
1.5441e-07
-3.02591e-06
1.16246e-07
-3.05699e-06
7.66725e-08
-3.07506e-06
3.59892e-08
-3.07973e-06
-5.40024e-09
-3.07076e-06
-4.7012e-08
-3.04813e-06
-8.83402e-08
-3.01198e-06
-1.28834e-07
-2.96262e-06
-1.67958e-07
-2.90052e-06
-2.05249e-07
-2.82628e-06
-2.40325e-07
-2.74064e-06
-2.72886e-07
-2.64448e-06
-3.02692e-07
-2.53878e-06
-3.2956e-07
-2.42464e-06
-3.53361e-07
-2.30318e-06
-3.74011e-07
-2.17556e-06
-3.91484e-07
-2.04293e-06
-4.05821e-07
-1.9064e-06
-4.17125e-07
-1.76696e-06
-4.25557e-07
-1.62556e-06
-4.31325e-07
-1.483e-06
-4.34669e-07
-1.33995e-06
-4.35857e-07
-1.19703e-06
-4.35169e-07
-1.05469e-06
-4.32884e-07
-9.13329e-07
-4.29278e-07
-7.7321e-07
-4.24642e-07
-6.34475e-07
-4.19287e-07
-4.97135e-07
-4.13507e-07
-3.61098e-07
-4.07582e-07
-2.26054e-07
-4.01899e-07
-9.16965e-08
-3.96588e-07
4.11057e-08
-3.90916e-07
1.71209e-07
-3.84821e-07
2.9834e-07
-3.78445e-07
4.22354e-07
-3.71848e-07
5.43046e-07
-3.65068e-07
6.60448e-07
-3.58021e-07
7.74778e-07
-3.50683e-07
8.86285e-07
-3.43083e-07
9.95195e-07
-3.35299e-07
1.10164e-06
-3.27431e-07
1.20569e-06
-3.19568e-07
1.30739e-06
-3.11778e-07
1.4068e-06
-3.04111e-07
1.50395e-06
-2.96603e-07
1.5989e-06
-2.89278e-07
1.69168e-06
-2.82149e-07
1.78234e-06
-2.75217e-07
1.87092e-06
-2.68481e-07
1.95747e-06
-2.61932e-07
2.04202e-06
-2.55559e-07
2.12461e-06
-2.49343e-07
2.20527e-06
-2.43259e-07
2.28401e-06
-2.3728e-07
2.36084e-06
-2.31372e-07
2.43576e-06
-2.255e-07
2.50876e-06
-2.19619e-07
2.57982e-06
-2.13686e-07
2.64891e-06
-2.07656e-07
2.71597e-06
-2.01487e-07
2.78094e-06
-1.95139e-07
2.84375e-06
-1.88571e-07
2.9043e-06
-1.81746e-07
2.96252e-06
-1.74636e-07
3.01829e-06
-1.67224e-07
3.0715e-06
-1.59502e-07
3.12205e-06
-1.51464e-07
3.16983e-06
-1.43118e-07
3.21477e-06
-1.34482e-07
3.25676e-06
-1.25589e-07
3.29573e-06
-1.16483e-07
3.33161e-06
-1.07215e-07
3.36438e-06
-9.78412e-08
3.394e-06
-8.84299e-08
3.42049e-06
-7.90595e-08
3.44387e-06
-6.98153e-08
3.46418e-06
-6.07827e-08
3.48152e-06
-5.20423e-08
3.49598e-06
-4.36692e-08
3.5077e-06
-3.57342e-08
3.51684e-06
-2.83025e-08
3.52357e-06
-2.14282e-08
3.52805e-06
-1.51495e-08
3.5305e-06
-9.48814e-09
3.5311e-06
-4.45786e-09
3.53004e-06
-5.18773e-11
3.52749e-06
3.7584e-09
3.52362e-06
7.00567e-09
3.5186e-06
9.72761e-09
3.51261e-06
1.19615e-08
3.50579e-06
1.3741e-08
3.49831e-06
1.50949e-08
3.49032e-06
1.60494e-08
3.48196e-06
1.66306e-08
3.47337e-06
1.6866e-08
3.46469e-06
1.67836e-08
3.45606e-06
1.64093e-08
3.4476e-06
1.57656e-08
3.43941e-06
1.48739e-08
3.43162e-06
1.37551e-08
3.42431e-06
1.2429e-08
3.41759e-06
1.09127e-08
3.41153e-06
9.22e-09
3.40621e-06
7.36401e-09
3.40169e-06
5.36002e-09
3.39805e-06
3.22683e-09
3.39535e-06
9.89063e-10
3.39363e-06
-1.32883e-09
3.3929e-06
-3.71059e-09
3.39317e-06
-6.14031e-09
3.39444e-06
-8.59664e-09
3.39671e-06
-1.10526e-08
3.39994e-06
-1.34777e-08
3.40411e-06
-1.58404e-08
3.40914e-06
-1.81107e-08
3.41497e-06
-2.02573e-08
3.42151e-06
-2.22436e-08
3.42867e-06
-2.4029e-08
3.43636e-06
-2.55776e-08
3.44447e-06
-2.68653e-08
3.45289e-06
-2.78802e-08
3.46152e-06
-2.86201e-08
3.47025e-06
-2.90896e-08
3.47899e-06
-2.92987e-08
3.48765e-06
-2.92618e-08
3.49617e-06
-2.90036e-08
3.50449e-06
-2.85614e-08
3.51258e-06
-2.79739e-08
3.52039e-06
-2.7276e-08
3.52791e-06
-2.65019e-08
3.53515e-06
-2.56822e-08
3.54209e-06
-2.48377e-08
3.54875e-06
-2.39899e-08
3.55514e-06
-2.31617e-08
3.56127e-06
-2.23667e-08
3.56716e-06
-2.16015e-08
3.57282e-06
-2.08521e-08
3.57825e-06
-2.00985e-08
3.58344e-06
-1.93002e-08
3.58835e-06
-1.84047e-08
3.59292e-06
-1.73543e-08
3.59706e-06
-1.60684e-08
3.60067e-06
-1.44624e-08
3.6036e-06
-1.2445e-08
3.60569e-06
-9.92525e-09
3.60671e-06
-6.81336e-09
3.60643e-06
-2.9895e-09
3.60457e-06
1.67706e-09
3.60082e-06
7.3716e-09
3.59482e-06
1.4394e-08
3.58609e-06
2.32366e-08
3.57399e-06
3.47561e-08
3.55756e-06
5.05465e-08
3.53541e-06
7.36887e-08
3.50571e-06
1.10195e-07
3.46745e-06
1.72324e-07
2.77988e-07
3.42761e-06
-1.13828e-07
7.35866e-07
-2.30742e-07
7.55766e-07
-3.50167e-07
7.51468e-07
-4.73155e-07
7.41714e-07
-6.00104e-07
7.29245e-07
-7.30869e-07
7.15232e-07
-8.64975e-07
7.00053e-07
-1.00164e-06
6.83738e-07
-1.13995e-06
6.66167e-07
-1.27888e-06
6.47172e-07
-1.41735e-06
6.26581e-07
-1.55429e-06
6.04238e-07
-1.68865e-06
5.80018e-07
-1.81943e-06
5.53813e-07
-1.94568e-06
5.25524e-07
-2.0665e-06
4.95057e-07
-2.18105e-06
4.62323e-07
-2.28849e-06
4.27236e-07
-2.38801e-06
3.89718e-07
-2.47884e-06
3.49708e-07
-2.56021e-06
3.07182e-07
-2.6314e-06
2.62157e-07
-2.69168e-06
2.14708e-07
-2.74042e-06
1.64983e-07
-2.77696e-06
1.1322e-07
-2.80072e-06
5.97563e-08
-2.81114e-06
5.02492e-09
-2.80775e-06
-5.0394e-08
-2.79028e-06
-1.0581e-07
-2.7586e-06
-1.60511e-07
-2.71277e-06
-2.13784e-07
-2.65306e-06
-2.64957e-07
-2.57996e-06
-3.13411e-07
-2.49425e-06
-3.58584e-07
-2.39695e-06
-3.99992e-07
-2.28927e-06
-4.37244e-07
-2.17256e-06
-4.70065e-07
-2.04825e-06
-4.98314e-07
-1.91775e-06
-5.21978e-07
-1.78241e-06
-5.4116e-07
-1.64347e-06
-5.56071e-07
-1.50203e-06
-5.67005e-07
-1.35903e-06
-5.74316e-07
-1.21531e-06
-5.78392e-07
-1.07155e-06
-5.79637e-07
-9.28283e-07
-5.7845e-07
-7.85928e-07
-5.75238e-07
-6.44777e-07
-5.70429e-07
-5.04966e-07
-5.64451e-07
-3.66522e-07
-5.57718e-07
-2.29356e-07
-5.50659e-07
-9.34158e-08
-5.43516e-07
4.04861e-08
-5.35799e-07
1.71361e-07
-5.27454e-07
2.99067e-07
-5.18613e-07
4.23622e-07
-5.09372e-07
5.45038e-07
-4.99855e-07
6.63351e-07
-4.90155e-07
7.78604e-07
-4.8032e-07
8.90925e-07
-4.70353e-07
1.00049e-06
-4.60264e-07
1.10748e-06
-4.50083e-07
1.21203e-06
-4.3986e-07
1.31426e-06
-4.29658e-07
1.41423e-06
-4.19534e-07
1.512e-06
-4.0954e-07
1.60762e-06
-3.9972e-07
1.70112e-06
-3.90105e-07
1.79256e-06
-3.80713e-07
1.88196e-06
-3.71553e-07
1.96937e-06
-3.62627e-07
2.05483e-06
-3.53934e-07
2.13836e-06
-3.45465e-07
2.22e-06
-3.37202e-07
2.29978e-06
-3.29121e-07
2.37771e-06
-3.21193e-07
2.45382e-06
-3.13386e-07
2.52811e-06
-3.05658e-07
2.60057e-06
-2.97961e-07
2.67118e-06
-2.90243e-07
2.73993e-06
-2.82447e-07
2.80679e-06
-2.74516e-07
2.87168e-06
-2.66395e-07
2.93456e-06
-2.58026e-07
2.99534e-06
-2.49357e-07
3.05394e-06
-2.40342e-07
3.11025e-06
-2.30948e-07
3.16418e-06
-2.21147e-07
3.2156e-06
-2.10924e-07
3.2644e-06
-2.00275e-07
3.3105e-06
-1.8921e-07
3.35377e-06
-1.77754e-07
3.39414e-06
-1.6595e-07
3.4315e-06
-1.53848e-07
3.4658e-06
-1.41513e-07
3.49699e-06
-1.29019e-07
3.52503e-06
-1.16458e-07
3.54991e-06
-1.0393e-07
3.57164e-06
-9.15427e-08
3.59027e-06
-7.94074e-08
3.60586e-06
-6.76327e-08
3.61852e-06
-5.63246e-08
3.62838e-06
-4.55835e-08
3.63558e-06
-3.54992e-08
3.64029e-06
-2.61443e-08
3.64271e-06
-1.75711e-08
3.64303e-06
-9.81094e-09
3.64145e-06