/*--------------------------------*- C++ -*----------------------------------*\
| =========                 |                                                 |
| \\      /  F ield         | OpenFOAM: The Open Source CFD Toolbox           |
|  \\    /   O peration     | Version:  1.4.2                                 |
|   \\  /    A nd           | Web:      http://www.openfoam.org               |
|    \\/     M anipulation  |                                                 |
\*---------------------------------------------------------------------------*/
FoamFile
{
    version     2.0;
    format      ascii;
    class       volVectorField;
    object      U;
    location    "50";
}
// * * * * * * * * * * * * * * * * * * * * * * * * * * * * * * * * * * * * * //

dimensions      [0 1 -1 0 0 0 0];

internalField   nonuniform List<vector> 
12225
(
(9.81916 0.0649026 0)
(9.67023 0.0449085 0)
(9.55364 0.0332306 0)
(9.47073 0.0222313 0)
(9.42652 0.013635 0)
(9.41457 0.00596276 0)
(9.43196 -0.000852207 0)
(9.47436 -0.00689227 0)
(9.53645 -0.0120007 0)
(9.61209 -0.0159983 0)
(9.69497 -0.0188414 0)
(9.77996 -0.0206063 0)
(9.86328 -0.0215093 0)
(9.94307 -0.0218795 0)
(10.0188 -0.0221002 0)
(10.0925 -0.0228055 0)
(10.1612 -0.0255113 0)
(10.3286 -0.0502485 0)
(9.97719 0.0547023 0)
(9.9171 0.0345346 0)
(9.87161 0.0276281 0)
(9.83722 0.0172318 0)
(9.8266 0.00736665 0)
(9.83818 -0.00311849 0)
(9.87172 -0.0132664 0)
(9.92478 -0.0225657 0)
(9.99339 -0.0303598 0)
(10.0726 -0.0361724 0)
(10.1576 -0.0399295 0)
(10.2443 -0.0418848 0)
(10.3302 -0.0425475 0)
(10.4137 -0.0425438 0)
(10.4944 -0.0426222 0)
(10.5737 -0.0439029 0)
(10.6507 -0.0503438 0)
(10.7531 -0.0614391 0)
(10.0029 0.0629588 0)
(9.96752 0.0434189 0)
(9.94945 0.034485 0)
(9.93612 0.0200953 0)
(9.94133 0.00528153 0)
(9.96387 -0.0106576 0)
(10.0041 -0.0263022 0)
(10.06 -0.0407043 0)
(10.128 -0.0527931 0)
(10.2044 -0.0618697 0)
(10.2852 -0.0678657 0)
(10.3676 -0.0712406 0)
(10.4494 -0.0727698 0)
(10.5297 -0.0733354 0)
(10.6078 -0.0739786 0)
(10.6845 -0.0761276 0)
(10.7579 -0.0832918 0)
(10.837 -0.0984653 0)
(10.0101 0.0657304 0)
(9.9871 0.048205 0)
(9.98383 0.0372067 0)
(9.98285 0.0194133 0)
(9.99755 -0.000104804 0)
(10.0263 -0.0212627 0)
(10.0694 -0.0421815 0)
(10.1248 -0.0614149 0)
(10.1896 -0.0775383 0)
(10.2609 -0.089693 0)
(10.3357 -0.0978484 0)
(10.4121 -0.102654 0)
(10.4884 -0.105106 0)
(10.5638 -0.106298 0)
(10.6377 -0.107449 0)
(10.71 -0.110035 0)
(10.7788 -0.116897 0)
(10.847 -0.129502 0)
(10.0125 0.06567 0)
(9.99799 0.0501212 0)
(10.004 0.0368821 0)
(10.0113 0.0158552 0)
(10.0321 -0.00812484 0)
(10.0642 -0.0341015 0)
(10.1077 -0.0597829 0)
(10.1605 -0.083307 0)
(10.2204 -0.103028 0)
(10.2851 -0.118024 0)
(10.3527 -0.128334 0)
(10.4219 -0.134743 0)
(10.4916 -0.138393 0)
(10.5609 -0.140495 0)
(10.6292 -0.142332 0)
(10.6962 -0.145292 0)
(10.7599 -0.151497 0)
(10.8211 -0.161643 0)
(10.0135 0.0637349 0)
(10.0057 0.0495914 0)
(10.0181 0.0339983 0)
(10.0312 0.00980558 0)
(10.0559 -0.0183132 0)
(10.0895 -0.048578 0)
(10.1316 -0.0783443 0)
(10.1803 -0.105483 0)
(10.2338 -0.128278 0)
(10.2908 -0.145843 0)
(10.3503 -0.158294 0)
(10.4113 -0.166479 0)
(10.4732 -0.171592 0)
(10.5352 -0.174871 0)
(10.5967 -0.177586 0)
(10.6572 -0.180993 0)
(10.7151 -0.186633 0)
(10.7703 -0.19501 0)
(10.014 0.0602704 0)
(10.0119 0.0469197 0)
(10.029 0.028858 0)
(10.0465 0.00158055 0)
(10.0736 -0.0302683 0)
(10.1072 -0.0641637 0)
(10.1465 -0.0972103 0)
(10.1898 -0.127186 0)
(10.2362 -0.152458 0)
(10.2848 -0.172259 0)
(10.3353 -0.18676 0)
(10.3873 -0.196802 0)
(10.4404 -0.203546 0)
(10.4939 -0.208191 0)
(10.5475 -0.211948 0)
(10.6003 -0.215944 0)
(10.6514 -0.221349 0)
(10.7004 -0.228729 0)
(10.0144 0.056082 0)
(10.0164 0.043096 0)
(10.0367 0.02265 0)
(10.0569 -0.00709522 0)
(10.085 -0.0417872 0)
(10.1176 -0.0781869 0)
(10.1536 -0.113345 0)
(10.1919 -0.145087 0)
(10.2315 -0.171965 0)
(10.2726 -0.193352 0)
(10.315 -0.20944 0)
(10.3587 -0.221021 0)
(10.4035 -0.229179 0)
(10.4491 -0.23505 0)
(10.4948 -0.239764 0)
(10.5402 -0.244359 0)
(10.5843 -0.249839 0)
(10.627 -0.256802 0)
(10.0147 0.0514007 0)
(10.0201 0.0386112 0)
(10.0427 0.0160104 0)
(10.0647 -0.0156424 0)
(10.093 -0.0524004 0)
(10.1238 -0.090419 0)
(10.1565 -0.126823 0)
(10.1897 -0.159567 0)
(10.2232 -0.187425 0)
(10.2572 -0.209912 0)
(10.2921 -0.22723 0)
(10.328 -0.240099 0)
(10.3648 -0.249504 0)
(10.4024 -0.256503 0)
(10.4404 -0.262136 0)
(10.4782 -0.267363 0)
(10.5151 -0.2731 0)
(10.5512 -0.279911 0)
(10.015 0.0453184 0)
(10.0236 0.0323442 0)
(10.0481 0.00759545 0)
(10.0715 -0.0258808 0)
(10.0992 -0.0643057 0)
(10.1277 -0.103429 0)
(10.1562 -0.140516 0)
(10.1839 -0.173748 0)
(10.2109 -0.202164 0)
(10.2375 -0.225435 0)
(10.2644 -0.24377 0)
(10.2918 -0.257799 0)
(10.3199 -0.268388 0)
(10.3486 -0.276495 0)
(10.3776 -0.283056 0)
(10.4065 -0.288955 0)
(10.4349 -0.295037 0)
(10.4627 -0.30182 0)
(10.0152 0.0375655 0)
(10.0265 0.0239046 0)
(10.0527 -0.00285263 0)
(10.077 -0.0379014 0)
(10.1035 -0.0773698 0)
(10.1291 -0.116896 0)
(10.1531 -0.153952 0)
(10.1753 -0.187027 0)
(10.1957 -0.215442 0)
(10.2151 -0.23902 0)
(10.234 -0.257981 0)
(10.2529 -0.272855 0)
(10.2721 -0.284382 0)
(10.2916 -0.293394 0)
(10.3112 -0.300729 0)
(10.3307 -0.307182 0)
(10.3496 -0.313534 0)
(10.3683 -0.320255 0)
(10.0151 0.0279068 0)
(10.0288 0.012928 0)
(10.0563 -0.0155739 0)
(10.0809 -0.0516624 0)
(10.1056 -0.0913071 0)
(10.1279 -0.130342 0)
(10.1474 -0.166527 0)
(10.1641 -0.198699 0)
(10.1785 -0.226449 0)
(10.1911 -0.249734 0)
(10.2027 -0.268774 0)
(10.2137 -0.284003 0)
(10.2245 -0.296026 0)
(10.2352 -0.305546 0)
(10.2457 -0.313295 0)
(10.2558 -0.319983 0)
(10.2653 -0.326316 0)
(10.2745 -0.332729 0)
(10.015 0.0161991 0)
(10.0304 -0.000918539 0)
(10.0587 -0.0307426 0)
(10.083 -0.0670245 0)
(10.1053 -0.105774 0)
(10.1242 -0.1433 0)
(10.1393 -0.177714 0)
(10.151 -0.208192 0)
(10.1599 -0.234548 0)
(10.1666 -0.256846 0)
(10.1717 -0.275288 0)
(10.1758 -0.290215 0)
(10.1792 -0.302101 0)
(10.1819 -0.311517 0)
(10.1841 -0.319085 0)
(10.1855 -0.325433 0)
(10.1862 -0.331186 0)
(10.1862 -0.336753 0)
(10.0154 0.00220442 0)
(10.0316 -0.0178346 0)
(10.0599 -0.0483265 0)
(10.083 -0.0836741 0)
(10.1026 -0.120338 0)
(10.1179 -0.155297 0)
(10.129 -0.187036 0)
(10.1363 -0.215014 0)
(10.1405 -0.239207 0)
(10.1421 -0.259745 0)
(10.1418 -0.276799 0)
(10.1399 -0.290616 0)
(10.1368 -0.301541 0)
(10.1326 -0.310019 0)
(10.1274 -0.316559 0)
(10.1211 -0.3217 0)
(10.1135 -0.325987 0)
(10.1051 -0.329805 0)
(10.0168 -0.0147771 0)
(10.0328 -0.0377371 0)
(10.0598 -0.0678685 0)
(10.0808 -0.101026 0)
(10.0972 -0.134447 0)
(10.109 -0.16585 0)
(10.1165 -0.19406 0)
(10.1201 -0.218733 0)
(10.1203 -0.239941 0)
(10.1177 -0.257841 0)
(10.1128 -0.272565 0)
(10.1058 -0.284266 0)
(10.0971 -0.293165 0)
(10.0867 -0.299583 0)
(10.0747 -0.303915 0)
(10.0611 -0.30661 0)
(10.0458 -0.308123 0)
(10.0291 -0.308827 0)
(10.0189 -0.0357404 0)
(10.0336 -0.0601306 0)
(10.0578 -0.0884044 0)
(10.0759 -0.118192 0)
(10.0889 -0.147424 0)
(10.0974 -0.174454 0)
(10.1017 -0.198372 0)
(10.1021 -0.218943 0)
(10.0991 -0.23626 0)
(10.093 -0.250465 0)
(10.0841 -0.261647 0)
(10.0726 -0.269872 0)
(10.0587 -0.275255 0)
(10.0424 -0.278 0)
(10.0238 -0.278404 0)
(10.0028 -0.276829 0)
(9.97944 -0.273653 0)
(9.95409 -0.269227 0)
(10.0199 -0.0609024 0)
(10.0322 -0.0840185 0)
(10.0525 -0.10865 0)
(10.0671 -0.134118 0)
(10.0767 -0.158511 0)
(10.0821 -0.180556 0)
(10.0835 -0.199519 0)
(10.0813 -0.215177 0)
(10.0755 -0.227564 0)
(10.0664 -0.23674 0)
(10.054 -0.242722 0)
(10.0383 -0.245501 0)
(10.0193 -0.245117 0)
(9.997 -0.241702 0)
(9.9714 -0.235499 0)
(9.94253 -0.226831 0)
(9.91058 -0.216046 0)
(9.87601 -0.203448 0)
(10.0179 -0.086282 0)
(10.0272 -0.105851 0)
(10.0429 -0.125889 0)
(10.0538 -0.146817 0)
(10.0602 -0.166349 0)
(10.0627 -0.183315 0)
(10.0616 -0.197069 0)
(10.0569 -0.207317 0)
(10.0487 -0.213931 0)
(10.0368 -0.216808 0)
(10.0212 -0.21584 0)
(10.0016 -0.210959 0)
(9.97796 -0.202193 0)
(9.95031 -0.189716 0)
(9.9187 -0.173852 0)
(9.88332 -0.155043 0)
(9.84467 -0.13377 0)
(9.80347 -0.110459 0)
(10.0131 -0.105117 0)
(10.0186 -0.121433 0)
(10.0298 -0.137745 0)
(10.037 -0.154871 0)
(10.0403 -0.170188 0)
(10.0402 -0.182597 0)
(10.0367 -0.191489 0)
(10.0297 -0.196454 0)
(10.019 -0.19718 0)
(10.0047 -0.193407 0)
(9.98638 -0.18495 0)
(9.96406 -0.171754 0)
(9.93771 -0.153963 0)
(9.9075 -0.131951 0)
(9.87374 -0.10632 0)
(9.83691 -0.0778414 0)
(9.79783 -0.0473805 0)
(9.75749 -0.0158284 0)
(10.007 -0.11484 0)
(10.0081 -0.130224 0)
(10.0147 -0.144375 0)
(10.0182 -0.158603 0)
(10.0185 -0.170444 0)
(10.0156 -0.178959 0)
(10.0095 -0.18356 0)
(10.0001 -0.183767 0)
(9.98723 -0.179178 0)
(9.97092 -0.169485 0)
(9.95112 -0.154531 0)
(9.92794 -0.134388 0)
(9.90161 -0.109418 0)
(9.87253 -0.080295 0)
(9.84125 -0.0479723 0)
(9.8085 -0.0135979 0)
(9.77521 0.0215728 0)
(9.74235 0.0561985 0)
(10.001 -0.116312 0)
(9.99708 -0.133358 0)
(9.99902 -0.146642 0)
(9.99856 -0.15863 0)
(9.99538 -0.167565 0)
(9.98932 -0.172749 0)
(9.98031 -0.173671 0)
(9.96837 -0.169873 0)
(9.95357 -0.160971 0)
(9.93607 -0.146703 0)
(9.91607 -0.127022 0)
(9.89392 -0.102173 0)
(9.87005 -0.0727527 0)
(9.84504 -0.0397066 0)
(9.81954 -0.00425915 0)
(9.79427 0.0322014 0)
(9.77 0.0682677 0)
(9.74737 0.102548 0)
(9.99602 -0.111457 0)
(9.98681 -0.131871 0)
(9.98381 -0.145107 0)
(9.97891 -0.155312 0)
(9.97171 -0.161796 0)
(9.96191 -0.164194 0)
(9.94962 -0.162152 0)
(9.93505 -0.155313 0)
(9.91853 -0.14338 0)
(9.90045 -0.126189 0)
(9.88124 -0.103816 0)
(9.86142 -0.0766522 0)
(9.84156 -0.0454583 0)
(9.82223 -0.0113346 0)
(9.80402 0.0243742 0)
(9.78747 0.0602372 0)
(9.77302 0.0949197 0)
(9.76091 0.127239 0)
(9.99283 -0.102534 0)
(9.97816 -0.12668 0)
(9.9699 -0.1402 0)
(9.95996 -0.148911 0)
(9.948 -0.15331 0)
(9.93381 -0.15346 0)
(9.91774 -0.149228 0)
(9.9003 -0.140398 0)
(9.88207 -0.126783 0)
(9.86366 -0.108314 0)
(9.8457 -0.0851553 0)
(9.8288 -0.0577815 0)
(9.81352 -0.0270115 0)
(9.80036 0.00602481 0)
(9.78972 0.0399973 0)
(9.78189 0.0735512 0)
(9.777 0.105508 0)
(9.77495 0.134965 0)
(9.99165 -0.0916387 0)
(9.97168 -0.118622 0)
(9.95777 -0.132287 0)
(9.94202 -0.139634 0)
(9.92442 -0.142241 0)
(9.90504 -0.140662 0)
(9.88457 -0.135005 0)
(9.8638 -0.125198 0)
(9.84357 -0.111148 0)
(9.82468 -0.0928491 0)
(9.80788 -0.0705036 0)
(9.7938 -0.0445935 0)
(9.78296 -0.0159036 0)
(9.77569 0.0145032 0)
(9.77219 0.0453961 0)
(9.77247 0.0755419 0)
(9.77642 0.10391 0)
(9.78371 0.129841 0)
(9.99249 -0.0804826 0)
(9.96754 -0.108399 0)
(9.94744 -0.121671 0)
(9.92486 -0.127634 0)
(9.9006 -0.128697 0)
(9.87511 -0.125866 0)
(9.84942 -0.119487 0)
(9.82464 -0.109597 0)
(9.80181 -0.0961652 0)
(9.78188 -0.0792115 0)
(9.76566 -0.0589202 0)
(9.75379 -0.0357201 0)
(9.74667 -0.0102967 0)
(9.7445 0.0164188 0)
(9.74724 0.043337 0)
(9.75468 0.0693539 0)
(9.76646 0.0935525 0)
(9.78211 0.115441 0)
(9.99508 -0.0702834 0)
(9.96545 -0.0964792 0)
(9.93824 -0.108525 0)
(9.90753 -0.11299 0)
(9.87533 -0.112732 0)
(9.84259 -0.109091 0)
(9.8107 -0.102596 0)
(9.78097 -0.0933584 0)
(9.75462 -0.0813703 0)
(9.73272 -0.0666425 0)
(9.71608 -0.0493047 0)
(9.70532 -0.0296898 0)
(9.70078 -0.0083448 0)
(9.70248 0.0139669 0)
(9.71019 0.0363216 0)
(9.72349 0.0577514 0)
(9.74177 0.0774308 0)
(9.76441 0.0949628 0)
(9.9987 -0.0614617 0)
(9.96434 -0.0828956 0)
(9.92829 -0.0927418 0)
(9.88754 -0.0955893 0)
(9.84568 -0.0942597 0)
(9.80419 -0.0902414 0)
(9.76474 -0.0841588 0)
(9.72882 -0.0761604 0)
(9.69771 -0.0662278 0)
(9.67253 -0.054347 0)
(9.65409 -0.0405728 0)
(9.64297 -0.025122 0)
(9.63943 -0.0083832 0)
(9.64338 0.00907209 0)
(9.65441 0.026508 0)
(9.67188 0.0431146 0)
(9.69493 0.0581579 0)
(9.72284 0.0712495 0)
(10.0013 -0.0535019 0)
(9.9609 -0.0674938 0)
(9.91235 -0.0741964 0)
(9.85816 -0.0753862 0)
(9.80375 -0.0733069 0)
(9.75114 -0.0693614 0)
(9.70211 -0.0641683 0)
(9.6582 -0.0578702 0)
(9.62063 -0.0504138 0)
(9.59044 -0.0417563 0)
(9.56841 -0.0318787 0)
(9.55504 -0.0208819 0)
(9.55052 -0.00899878 0)
(9.55467 0.00340349 0)
(9.56695 0.0157975 0)
(9.58653 0.0275652 0)
(9.61226 0.0380964 0)
(9.64337 0.0469571 0)
(9.99421 -0.0428857 0)
(9.94127 -0.048056 0)
(9.8705 -0.0512349 0)
(9.79483 -0.0514882 0)
(9.72164 -0.0496138 0)
(9.65307 -0.0466171 0)
(9.59066 -0.0430156 0)
(9.53562 -0.0389351 0)
(9.48882 -0.0343017 0)
(9.45104 -0.0290713 0)
(9.42285 -0.023186 0)
(9.4046 -0.0166594 0)
(9.39641 -0.00959788 0)
(9.39803 -0.00217595 0)
(9.40878 0.00527564 0)
(9.42773 0.0123371 0)
(9.45344 0.0185641 0)
(9.48515 0.0234966 0)
(9.89735 -0.0527794 0)
(9.78642 -0.0533553 0)
(9.65496 -0.0497753 0)
(9.52834 -0.0446027 0)
(9.41517 -0.039065 0)
(9.31547 -0.0338992 0)
(9.22846 -0.0293269 0)
(9.15354 -0.0252589 0)
(9.09023 -0.0214636 0)
(9.03828 -0.0177853 0)
(8.99763 -0.0140879 0)
(8.9682 -0.0102862 0)
(8.94986 -0.00637305 0)
(8.94226 -0.00238965 0)
(8.94487 0.00154004 0)
(8.95652 0.00525643 0)
(8.97547 0.00854652 0)
(9.00065 0.0108492 0)
(-0.206783 0.345993 0)
(-0.378015 0.377065 0)
(-0.62136 0.351674 0)
(-0.85884 0.319362 0)
(-1.08247 0.29089 0)
(-1.29363 0.266431 0)
(-1.49338 0.245168 1.06245e-20)
(-1.68245 0.226431 -8.79858e-21)
(-1.86161 0.209703 0)
(-2.03151 0.194566 -5.9694e-21)
(-2.19261 0.180659 0)
(-2.34525 0.16768 0)
(-2.48967 0.155373 0)
(-2.62592 0.143521 2.26058e-21)
(-2.75397 0.131946 0)
(-2.87368 0.120498 0)
(-2.98479 0.109055 -5.79325e-22)
(-3.087 0.0975124 0)
(-3.17993 0.0857917 0)
(-3.26308 0.073837 0)
(-3.33591 0.0616051 -4.46992e-22)
(-3.39781 0.049069 0)
(-3.44828 0.0362339 -4.08515e-22)
(-3.48698 0.0231662 0)
(-3.51362 0.010005 0)
(-3.5275 -0.00309772 4.27404e-22)
(-3.52781 -0.0160519 0)
(-3.51515 -0.0288641 -1.57879e-21)
(-3.48959 -0.0414196 0)
(-3.45143 -0.053541 3.25448e-21)
(-3.40116 -0.0650663 0)
(-3.33945 -0.0758702 0)
(-3.26705 -0.0858655 0)
(-3.18479 -0.0949993 0)
(-3.09354 -0.103247 0)
(-2.99416 -0.110601 -1.15037e-20)
(-2.8875 -0.117063 0)
(-2.77442 -0.122646 3.07579e-20)
(-2.65582 -0.127378 0)
(-2.53262 -0.131297 -3.97624e-20)
(-2.40575 -0.134444 0)
(-2.27612 -0.136866 0)
(-2.14456 -0.138612 5.59196e-20)
(-2.01183 -0.13973 0)
(-1.87857 -0.140258 6.87695e-20)
(-1.74534 -0.140215 -7.59333e-20)
(-1.61262 -0.139605 0)
(-1.48086 -0.138426 -9.19899e-20)
(-1.3505 -0.136692 -1.01002e-19)
(-1.22195 -0.134436 0)
(-1.09558 -0.131721 0)
(-0.971675 -0.12865 0)
(-0.850278 -0.125372 0)
(-0.731275 -0.122102 0)
(-0.614526 -0.119159 1.74405e-19)
(-0.500072 -0.116858 0)
(-0.387958 -0.115586 -2.10735e-19)
(-0.279649 -0.115516 0)
(-0.174782 -0.116138 0)
(-0.0667731 -0.116192 3.08399e-19)
(0.0428711 -0.114214 0)
(0.1487 -0.110687 -2.88479e-19)
(0.252367 -0.106481 0)
(0.353738 -0.102005 0)
(0.452762 -0.097475 0)
(0.549425 -0.0930185 2.26706e-19)
(0.643746 -0.0887111 0)
(0.735762 -0.084593 0)
(0.825519 -0.0806765 1.95324e-19)
(0.913081 -0.0769615 0)
(0.998528 -0.0734477 1.79146e-19)
(1.08193 -0.0701324 0)
(1.16335 -0.067008 0)
(1.24285 -0.0640639 0)
(1.32049 -0.0612873 -1.54453e-19)
(1.39633 -0.058663 0)
(1.47042 -0.0561759 0)
(1.54279 -0.0538105 -1.40575e-19)
(1.61347 -0.0515487 -1.36601e-19)
(1.68245 -0.0493714 0)
(1.74973 -0.0472614 -1.29463e-19)
(1.81526 -0.0452051 0)
(1.87898 -0.0431914 -2.46531e-19)
(1.94082 -0.0412119 0)
(2.00074 -0.0392588 -2.35772e-19)
(2.05865 -0.0373226 0)
(2.11446 -0.0353924 2.26467e-19)
(2.16809 -0.0334589 0)
(2.21942 -0.0315182 0)
(2.26837 -0.0295713 0)
(2.31482 -0.0276201 -2.11703e-19)
(2.35868 -0.0256652 0)
(2.39987 -0.0237077 2.06053e-19)
(2.43833 -0.021753 0)
(2.47401 -0.0198119 -2.01451e-19)
(2.50689 -0.0178975 -1.9952e-19)
(2.53694 -0.0160221 -1.97821e-19)
(2.56418 -0.014197 0)
(2.58865 -0.0124351 0)
(2.61039 -0.0107522 0)
(2.6295 -0.009166 0)
(2.64609 -0.00769269 0)
(2.66026 -0.00634427 0)
(2.67218 -0.00512878 0)
(2.68204 -0.00405159 0)
(2.69003 -0.00311582 1.91101e-19)
(2.69636 -0.00232151 1.91059e-19)
(2.70126 -0.00166578 0)
(2.70492 -0.00114642 0)
(2.70764 -0.000758118 0)
(2.7096 -0.000487703 1.91509e-19)
(2.71095 -0.000321272 0)
(2.71186 -0.000245242 0)
(2.71246 -0.000246681 0)
(2.7129 -0.000314236 0)
(2.71328 -0.000438758 -1.92743e-19)
(2.71374 -0.000612551 0)
(2.71435 -0.000827159 0)
(2.71524 -0.00107022 1.93434e-19)
(2.71648 -0.00132654 -1.93612e-19)
(2.71815 -0.00158103 0)
(2.72032 -0.00182174 -1.93865e-19)
(2.72304 -0.00204128 0)
(2.72632 -0.0022349 1.93941e-19)
(2.73014 -0.00240082 0)
(2.73447 -0.00254047 0)
(2.73929 -0.00265827 0)
(2.74459 -0.00276105 0)
(2.75035 -0.00285587 0)
(2.75657 -0.00294799 -3.87125e-19)
(2.76325 -0.0030404 -3.86883e-19)
(2.77042 -0.00313482 0)
(2.77813 -0.00323295 0)
(2.78639 -0.00333696 0)
(2.79524 -0.00344875 3.85589e-19)
(2.80468 -0.00356842 0)
(2.81473 -0.00369355 0)
(2.82539 -0.00382001 0)
(2.83666 -0.0039441 3.83551e-19)
(2.84853 -0.00406366 -3.82903e-19)
(2.86095 -0.00417685 0)
(2.87388 -0.00428008 0)
(2.88726 -0.00436818 -3.80645e-19)
(2.90102 -0.00443685 -3.79801e-19)
(2.9151 -0.00448445 0)
(2.92942 -0.00451093 0)
(2.94393 -0.00451656 3.7707e-19)
(2.95854 -0.00450267 -3.76111e-19)
(2.97318 -0.00447164 0)
(2.98781 -0.00442403 0)
(3.00239 -0.00435864 -3.73144e-19)
(3.01688 -0.00427692 0)
(3.03127 -0.00418341 0)
(3.04551 -0.00408181 -3.70079e-19)
(3.05958 -0.00397623 0)
(3.07346 -0.00387331 -3.67979e-19)
(3.08716 -0.00377877 0)
(3.10068 -0.00369401 0)
(3.11401 -0.00361702 0)
(3.12716 -0.00354794 3.63582e-19)
(3.14016 -0.00348636 0)
(3.153 -0.00342531 0)
(3.16567 -0.00335728 0)
(3.17815 -0.00327335 0)
(3.19037 -0.00316812 0)
(3.20225 -0.00303762 0)
(3.21364 -0.00287271 3.55226e-19)
(3.22438 -0.00267469 3.54109e-19)
(3.23429 -0.00244395 0)
(3.24313 -0.00217771 0)
(3.2507 -0.0018635 0)
(3.25672 -0.00146759 -3.50622e-19)
(3.26071 -0.000956671 0)
(3.26206 -0.000271143 7.00092e-19)
(3.25981 0.000696999 -7.00816e-19)
(3.25254 0.00215104 -7.02907e-19)
(3.23773 0.00450369 7.07079e-19)
(3.21025 0.00876576 -7.14685e-19)
(3.16201 0.0178077 7.28541e-19)
(3.03137 0.0430672 0)
(-0.174082 0.669047 0)
(-0.296187 0.713291 0)
(-0.468091 0.699704 -3.284e-20)
(-0.648178 0.669908 0)
(-0.8246 0.636033 2.18957e-20)
(-0.997009 0.602135 1.82765e-20)
(-1.16506 0.56947 7.29283e-21)
(-1.32828 0.538396 6.68011e-21)
(-1.48635 0.508903 0)
(-1.63903 0.480813 4.55889e-21)
(-1.78613 0.453851 0)
(-1.9274 0.427699 0)
(-2.06261 0.40204 -4.37143e-21)
(-2.19145 0.376579 -1.71558e-21)
(-2.31358 0.351044 2.24347e-21)
(-2.42863 0.3252 1.38434e-21)
(-2.5362 0.298842 4.32767e-22)
(-2.63582 0.271798 0)
(-2.72704 0.243932 0)
(-2.80934 0.215147 0)
(-2.88217 0.185381 -6.52037e-22)
(-2.94497 0.154606 0)
(-2.99718 0.122852 1.27806e-21)
(-3.03833 0.0902482 0)
(-3.06803 0.0570777 0)
(-3.08591 0.0237482 -2.89852e-22)
(-3.09137 -0.00934574 0)
(-3.0842 -0.041904 1.03848e-21)
(-3.06458 -0.0735785 2.39465e-21)
(-3.0327 -0.103931 -2.0777e-21)
(-2.98897 -0.132562 0)
(-2.9339 -0.159156 0)
(-2.86816 -0.183494 0)
(-2.79244 -0.20545 9.15496e-21)
(-2.70753 -0.224962 1.09087e-20)
(-2.61423 -0.242026 6.81449e-21)
(-2.51338 -0.256662 0)
(-2.40584 -0.268919 -1.78073e-20)
(-2.29252 -0.278865 0)
(-2.17436 -0.286599 2.24694e-20)
(-2.0523 -0.292243 0)
(-1.92726 -0.295944 0)
(-1.80009 -0.297855 -3.03481e-20)
(-1.67151 -0.298136 0)
(-1.54214 -0.296934 -1.06844e-19)
(-1.4125 -0.294392 3.93889e-20)
(-1.28305 -0.290649 0)
(-1.15421 -0.285859 4.61997e-20)
(-1.02637 -0.280211 4.98897e-20)
(-0.899917 -0.273937 0)
(-0.775154 -0.267305 0)
(-0.652252 -0.260605 0)
(-0.53117 -0.254125 0)
(-0.411631 -0.248145 0)
(-0.293125 -0.242768 -7.90522e-20)
(-0.175319 -0.237845 -1.69267e-19)
(-0.055835 -0.233331 9.02775e-20)
(0.061959 -0.229618 0)
(0.176937 -0.226312 -1.77637e-19)
(0.289452 -0.222255 8.68822e-20)
(0.399313 -0.216987 0)
(0.506371 -0.210952 8.68174e-20)
(0.610871 -0.204529 0)
(0.713012 -0.197969 0)
(0.812883 -0.191433 1.67515e-19)
(0.910548 -0.18502 -8.3735e-20)
(1.00605 -0.178787 1.6479e-19)
(1.09944 -0.172766 -1.63479e-19)
(1.19077 -0.166968 -8.16701e-20)
(1.2801 -0.161399 0)
(1.36748 -0.156059 -8.03502e-20)
(1.45298 -0.150943 0)
(1.53663 -0.146038 0)
(1.61848 -0.141329 0)
(1.69857 -0.1368 -7.69279e-20)
(1.77695 -0.132433 0)
(1.85364 -0.128205 -1.52235e-19)
(1.92866 -0.124094 2.26887e-19)
(2.00201 -0.120071 7.52481e-20)
(2.07371 -0.116113 0)
(2.14373 -0.112195 7.40386e-20)
(2.21202 -0.108296 0)
(2.27853 -0.104396 1.45765e-19)
(2.34321 -0.100478 0)
(2.40599 -0.0965241 1.43602e-19)
(2.46679 -0.0925148 -2.84264e-19)
(2.52553 -0.0884346 -1.41627e-19)
(2.58211 -0.0842747 0)
(2.63644 -0.080034 0)
(2.68842 -0.0757163 0)
(2.73794 -0.0713256 1.38396e-19)
(2.78491 -0.0668671 0)
(2.82926 -0.0623512 -1.37203e-19)
(2.87093 -0.0577963 0)
(2.90987 -0.0532281 4.08435e-19)
(2.94601 -0.0486754 1.35982e-19)
(2.97934 -0.0441685 1.35722e-19)
(3.00985 -0.0397402 0)
(3.03757 -0.0354284 0)
(3.06253 -0.0312755 0)
(3.0848 -0.0273235 0)
(3.10444 -0.0236083 0)
(3.12155 -0.0201576 2.70689e-19)
(3.13627 -0.0169914 2.7096e-19)
(3.14875 -0.0141241 0)
(3.15914 -0.0115641 -1.35908e-19)
(3.16762 -0.00931412 -1.36091e-19)
(3.17436 -0.00737342 0)
(3.17954 -0.00574235 -2.72832e-19)
(3.18334 -0.00440767 0)
(3.18594 -0.00333987 1.36588e-19)
(3.1875 -0.00251037 0)
(3.18817 -0.00189352 0)
(3.18811 -0.00146638 -2.73706e-19)
(3.18744 -0.00120893 0)
(3.18631 -0.00110316 1.36912e-19)
(3.18483 -0.00113012 0)
(3.18313 -0.00126705 0)
(3.18133 -0.0014866 1.36811e-19)
(3.17955 -0.00176167 1.36705e-19)
(3.1779 -0.00207135 0)
(3.17646 -0.00240429 -1.36471e-19)
(3.1753 -0.00275763 0)
(3.17449 -0.00313202 1.36145e-19)
(3.1741 -0.00353025 2.71943e-19)
(3.1742 -0.00395721 0)
(3.17488 -0.00441871 0)
(3.17619 -0.00491944 0)
(3.1782 -0.00546066 0)
(3.18098 -0.00603898 2.70523e-19)
(3.18457 -0.00664776 8.11047e-19)
(3.18904 -0.00727953 0)
(3.19444 -0.00792799 0)
(3.20079 -0.00858788 0)
(3.20812 -0.00925331 -2.70272e-19)
(3.21643 -0.00991583 0)
(3.22571 -0.0105642 0)
(3.23597 -0.0111867 5.4098e-19)
(3.24715 -0.0117738 2.70517e-19)
(3.25922 -0.012319 2.70761e-19)
(3.27209 -0.0128153 0)
(3.28568 -0.0132531 0)
(3.29989 -0.013622 2.70911e-19)
(3.31465 -0.0139148 -2.70723e-19)
(3.32985 -0.01413 0)
(3.3454 -0.0142703 0)
(3.36118 -0.0143396 -2.70662e-19)
(3.37712 -0.0143414 8.11343e-19)
(3.39311 -0.0142795 0)
(3.4091 -0.0141575 0)
(3.42505 -0.0139794 2.69824e-19)
(3.44089 -0.0137548 0)
(3.4566 -0.0134993 5.38173e-19)
(3.47212 -0.013228 -2.68616e-19)
(3.48743 -0.0129529 0)
(3.50252 -0.0126862 2.67841e-19)
(3.51738 -0.0124387 5.34468e-19)
(3.53201 -0.0122156 0)
(3.54642 -0.0120127 0)
(3.56062 -0.011824 -2.6536e-19)
(3.57462 -0.0116417 0)
(3.58843 -0.0114457 5.27423e-19)
(3.60202 -0.0112144 0)
(3.61536 -0.0109285 0)
(3.62838 -0.0105715 0)
(3.64096 -0.0101283 0)
(3.65299 -0.00957831 -2.58993e-19)
(3.66427 -0.00891097 -2.58018e-19)
(3.67461 -0.00811217 0)
(3.68376 -0.00715851 0)
(3.69137 -0.00601336 0)
(3.69707 -0.00460863 2.54638e-19)
(3.70042 -0.0028605 0)
(3.70089 -0.000618353 -5.0767e-19)
(3.69768 0.00238182 5.07986e-19)
(3.68959 0.00663881 5.09469e-19)
(3.67453 0.0131628 5.12376e-19)
(3.64862 0.0242013 5.18854e-19)
(3.60733 0.045488 5.27572e-19)
(3.52396 0.0917867 0)
(-0.122801 1.01289 0)
(-0.211842 1.05544 0)
(-0.340298 1.0401 2.60445e-20)
(-0.480178 1.00833 1.86297e-20)
(-0.619998 0.96994 -1.75416e-20)
(-0.760133 0.929342 -1.47759e-20)
(-0.900514 0.88838 -1.40107e-21)
(-1.04051 0.847819 0)
(-1.17942 0.80789 0)
(-1.31656 0.768549 0)
(-1.45122 0.729592 0)
(-1.58275 0.690752 0)
(-1.71046 0.651737 9.71596e-21)
(-1.83375 0.612265 0)
(-1.95199 0.572072 -1.87668e-21)
(-2.06458 0.530921 -1.15633e-21)
(-2.1709 0.488609 0)
(-2.27038 0.444964 0)
(-2.3624 0.399854 0)
(-2.44636 0.353193 0)
(-2.52165 0.304945 7.97996e-22)
(-2.58765 0.255128 0)
(-2.64375 0.20383 -7.99698e-22)
(-2.68938 0.151234 0)
(-2.72404 0.0976567 0)
(-2.7473 0.0435723 0)
(-2.75872 -0.0104066 -2.45033e-22)
(-2.75768 -0.0636844 0)
(-2.7443 -0.115662 -1.84444e-21)
(-2.71863 -0.165644 3.97679e-21)
(-2.68091 -0.212975 0)
(-2.63148 -0.257126 0)
(-2.57085 -0.297715 0)
(-2.4996 -0.334493 -6.99825e-21)
(-2.41845 -0.367306 -8.35635e-21)
(-2.32822 -0.396078 0)
(-2.22982 -0.420791 0)
(-2.12423 -0.44147 2.48838e-20)
(-2.01251 -0.458198 2.84139e-20)
(-1.89572 -0.471122 -3.21071e-20)
(-1.77491 -0.480447 0)
(-1.65106 -0.486422 0)
(-1.52502 -0.489319 0)
(-1.39752 -0.48942 0)
(-1.26917 -0.48701 5.38963e-20)
(-1.14048 -0.482389 5.74227e-20)
(-1.0119 -0.475887 -6.21911e-20)
(-0.883872 -0.467894 0)
(-0.756792 -0.458874 0)
(-0.63096 -0.449327 0)
(-0.506527 -0.439728 0)
(-0.383416 -0.430482 8.97299e-20)
(-0.261306 -0.421684 0)
(-0.139841 -0.413169 0)
(-0.0176258 -0.404705 1.0738e-19)
(0.101652 -0.396358 1.09426e-19)
(0.218639 -0.387829 0)
(0.332975 -0.379185 -2.17845e-19)
(0.444408 -0.370417 1.10236e-19)
(0.552957 -0.3613 -1.10328e-19)
(0.658835 -0.351794 0)
(0.76224 -0.341979 0)
(0.86336 -0.332001 0)
(0.962329 -0.322014 0)
(1.05923 -0.312135 -1.10814e-19)
(1.15412 -0.302445 -2.20075e-19)
(1.24703 -0.292997 -1.1084e-19)
(1.33801 -0.283824 1.10806e-19)
(1.4271 -0.274945 0)
(1.51434 -0.266368 -2.19921e-19)
(1.59977 -0.258093 -2.19718e-19)
(1.68342 -0.250112 -2.19448e-19)
(1.76534 -0.242412 2.19114e-19)
(1.84555 -0.234975 0)
(1.9241 -0.227778 3.27952e-19)
(2.001 -0.220798 0)
(2.07628 -0.214007 -1.08087e-19)
(2.14994 -0.207369 -1.08796e-19)
(2.22198 -0.20085 0)
(2.2924 -0.194412 0)
(2.36117 -0.188022 -2.1471e-19)
(2.42824 -0.181644 0)
(2.49358 -0.175246 -2.13398e-19)
(2.55712 -0.168797 0)
(2.6188 -0.162266 2.12116e-19)
(2.67853 -0.155624 4.23697e-19)
(2.73624 -0.148854 0)
(2.79181 -0.141944 0)
(2.84515 -0.134891 0)
(2.89616 -0.127697 2.09497e-19)
(2.94473 -0.120368 0)
(2.99077 -0.112916 2.08872e-19)
(3.03421 -0.105364 0)
(3.07496 -0.0977454 0)
(3.11297 -0.0901 -4.17517e-19)
(3.14817 -0.0824733 0)
(3.18054 -0.0749163 -2.08732e-19)
(3.21006 -0.0674871 0)
(3.23676 -0.06025 -2.09193e-19)
(3.26064 -0.0532708 0)
(3.28176 -0.0466107 0)
(3.3002 -0.0403222 0)
(3.31604 -0.0344483 -6.31988e-19)
(3.32942 -0.0290226 -2.1116e-19)
(3.34048 -0.0240707 0)
(3.34939 -0.0196089 0)
(3.3563 -0.0156456 0)
(3.36139 -0.0121811 0)
(3.36487 -0.00920469 2.12289e-19)
(3.36686 -0.00668838 -4.2414e-19)
(3.36753 -0.00459719 -2.11936e-19)
(3.36704 -0.00289663 4.23284e-19)
(3.36556 -0.00155337 4.22673e-19)
(3.36322 -0.00053583 2.10975e-19)
(3.36019 0.000185949 0)
(3.35661 0.00064202 4.20033e-19)
(3.35263 0.000865134 0)
(3.34839 0.000891285 -4.17649e-19)
(3.34405 0.000755945 -2.0814e-19)
(3.33974 0.000488338 0)
(3.33559 0.0001067 4.13467e-19)
(3.33172 -0.000381591 2.0599e-19)
(3.32823 -0.000975279 0)
(3.32519 -0.00167489 2.04611e-19)
(3.3227 -0.00248069 -6.11855e-19)
(3.32084 -0.00339254 0)
(3.31967 -0.00440806 0)
(3.31925 -0.00551938 0)
(3.31964 -0.00671191 0)
(3.32092 -0.00796714 -4.03601e-19)
(3.32316 -0.00926677 -4.0317e-19)
(3.3264 -0.0105951 0)
(3.33068 -0.0119383 0)
(3.33599 -0.0132832 0)
(3.34235 -0.0146148 0)
(3.34973 -0.0159157 0)
(3.35811 -0.0171677 0)
(3.36746 -0.0183535 -4.0425e-19)
(3.37772 -0.0194588 -1.21196e-22)
(3.38881 -0.02047 0)
(3.40064 -0.0213722 0)
(3.4131 -0.02215 -4.05486e-19)
(3.42611 -0.0227907 0)
(3.43956 -0.023287 4.05891e-19)
(3.45335 -0.0236389 4.05729e-19)
(3.46736 -0.0238521 0)
(3.48149 -0.0239345 0)
(3.49566 -0.023893 -4.05194e-19)
(3.5098 -0.0237352 -8.09252e-19)
(3.52385 -0.023474 0)
(3.53778 -0.0231268 0)
(3.55155 -0.0227154 0)
(3.56512 -0.0222663 -4.02077e-19)
(3.5785 -0.0218045 4.01155e-19)
(3.59166 -0.0213476 0)
(3.6046 -0.0209079 7.97903e-19)
(3.61735 -0.0204957 3.97706e-19)
(3.62991 -0.0201156 -7.93224e-19)
(3.6423 -0.01976 0)
(3.65453 -0.0194133 0)
(3.66661 -0.0190577 -7.85496e-19)
(3.67857 -0.0186656 -3.91434e-19)
(3.69036 -0.0182078 0)
(3.70196 -0.0176596 0)
(3.71327 -0.0169939 0)
(3.72419 -0.0161853 0)
(3.73458 -0.0152052 -7.66418e-19)
(3.74426 -0.0140251 0)
(3.75302 -0.012614 0)
(3.76064 -0.0109273 0)
(3.76681 -0.00891195 0)
(3.77125 -0.00648614 0)
(3.77357 -0.00352354 0)
(3.77336 0.000192107 -7.482e-19)
(3.77004 0.00503749 0)
(3.76278 0.0117151 0)
(3.75037 0.0216066 -1.51509e-18)
(3.73091 0.0375119 7.69203e-19)
(3.70362 0.0655392 -7.91865e-19)
(3.66092 0.116108 8.2386e-19)
(-0.089879 1.27657 0)
(-0.159767 1.31331 -4.49479e-20)
(-0.258074 1.29645 0)
(-0.367432 1.26657 -1.4605e-20)
(-0.478795 1.23089 0)
(-0.593057 1.19255 0)
(-0.71056 1.1528 6.10931e-21)
(-0.830816 1.11206 0)
(-0.953075 1.07039 0)
(-1.07649 1.02767 0)
(-1.20012 0.98373 0)
(-1.32301 0.938355 0)
(-1.44423 0.891357 -8.55677e-21)
(-1.56285 0.842555 -2.08283e-21)
(-1.67801 0.791787 7.96968e-22)
(-1.78889 0.738901 0)
(-1.8947 0.683754 0)
(-1.99466 0.626221 0)
(-2.08805 0.566205 0)
(-2.17414 0.503652 0)
(-2.25221 0.43856 3.70832e-21)
(-2.32157 0.370993 3.85512e-21)
(-2.38155 0.301097 -3.81511e-21)
(-2.43151 0.229125 3.58702e-21)
(-2.47085 0.155463 0)
(-2.49901 0.0806651 0)
(-2.51551 0.00547034 2.00917e-22)
(-2.51957 -0.0692175 0)
(-2.51103 -0.142458 0)
(-2.48971 -0.213282 -3.25556e-21)
(-2.45559 -0.280784 -3.31173e-21)
(-2.40882 -0.344208 -5.09307e-21)
(-2.34971 -0.402951 0)
(-2.27884 -0.456537 0)
(-2.197 -0.504595 1.18075e-20)
(-2.10518 -0.546855 0)
(-2.00453 -0.583162 0)
(-1.89634 -0.613488 -2.15156e-20)
(-1.78191 -0.637937 2.25618e-20)
(-1.66251 -0.656739 -2.59497e-20)
(-1.53933 -0.670228 0)
(-1.41341 -0.678807 0)
(-1.28561 -0.68292 -7.5271e-20)
(-1.15668 -0.683035 0)
(-1.02723 -0.679645 -9.06013e-20)
(-0.89781 -0.67329 -1.48648e-19)
(-0.76893 -0.664569 1.60902e-19)
(-0.641042 -0.654146 -1.15134e-19)
(-0.514447 -0.64271 0)
(-0.389213 -0.630877 0)
(-0.265172 -0.618942 -1.42779e-19)
(-0.142095 -0.606899 -7.7257e-20)
(-0.0190576 -0.594527 0)
(0.100885 -0.581916 0)
(0.218301 -0.568835 -8.25061e-20)
(0.332966 -0.555392 -1.65029e-19)
(0.444938 -0.541747 0)
(0.554224 -0.528025 1.69425e-19)
(0.660842 -0.514269 -1.69108e-19)
(0.764889 -0.500451 1.70253e-19)
(0.866519 -0.486573 0)
(0.965893 -0.472681 0)
(1.06315 -0.458855 0)
(1.15838 -0.445182 0)
(1.25167 -0.43174 0)
(1.34308 -0.418587 1.76568e-19)
(1.43265 -0.405769 0)
(1.52041 -0.393319 0)
(1.6064 -0.381252 0)
(1.69065 -0.369577 3.55001e-19)
(1.77321 -0.358289 1.78173e-19)
(1.85409 -0.34738 1.78249e-19)
(1.93335 -0.336834 -3.55561e-19)
(2.01099 -0.326628 1.77272e-19)
(2.08706 -0.316734 -1.78034e-19)
(2.16156 -0.30712 0)
(2.23451 -0.29775 1.77567e-19)
(2.30592 -0.288582 0)
(2.37579 -0.27957 0)
(2.44409 -0.270666 0)
(2.5108 -0.261822 3.51564e-19)
(2.57589 -0.252987 -1.75047e-19)