/*--------------------------------*- C++ -*----------------------------------*\
| =========                 |                                                 |
| \\      /  F ield         | OpenFOAM: The Open Source CFD Toolbox           |
|  \\    /   O peration     | Version:  1.4.2                                 |
|   \\  /    A nd           | Web:      http://www.openfoam.org               |
|    \\/     M anipulation  |                                                 |
\*---------------------------------------------------------------------------*/
FoamFile
{
    version     2.0;
    format      ascii;
    class       volScalarField;
    object      epsilon;
    location    "600";
}
// * * * * * * * * * * * * * * * * * * * * * * * * * * * * * * * * * * * * * //

dimensions      [0 2 -3 0 0 0 0];

internalField   nonuniform List<scalar> 
12225
(
443.026
353.451
290.585
245.345
212.188
187.593
169.244
155.571
145.484
138.208
133.181
129.983
128.298
127.878
128.526
130.08
132.406
135.667
60.1657
73.6156
79.5682
83.6956
87.715
92.3552
97.9703
104.742
112.769
122.103
132.764
144.743
158.006
172.488
188.093
204.683
222.016
240.153
26.2959
33.71
37.845
40.6833
42.93
44.953
46.9646
49.0927
51.4171
53.9887
56.8393
59.9871
63.4384
67.1871
71.2128
75.472
79.8751
84.2587
18.7356
22.7236
25.4806
27.3757
28.8177
30.0125
31.0724
32.0708
33.0571
34.064
35.1131
36.2179
37.3858
38.6185
39.9123
41.2565
42.6313
43.9925
16.1687
18.1635
19.9328
21.2921
22.3447
23.1851
23.8876
24.5052
25.0722
25.6101
26.1341
26.6544
27.1776
27.7076
28.2456
28.7905
29.3381
29.87
15.2354
16.0865
17.0485
17.937
18.6894
19.3118
19.831
20.2729
20.6589
21.0057
21.3256
21.6273
21.9168
22.198
22.4735
22.7443
23.0095
23.2589
14.8942
15.1701
15.5865
16.0523
16.5064
16.922
17.2899
17.6104
17.8895
18.1351
18.3544
18.5533
18.7368
18.9083
19.0706
19.2251
19.3718
19.5047
14.7876
14.838
14.9916
15.2092
15.4538
15.7011
15.9371
16.1546
16.3514
16.5281
16.6866
16.8295
16.9594
17.0786
17.1891
17.2923
17.3887
17.4748
14.7441
14.6884
14.7003
14.7662
14.8676
14.9883
15.1165
15.2442
15.3665
15.4809
15.5865
15.6832
15.7718
15.8529
15.9276
15.9967
16.0609
16.1184
14.7239
14.6134
14.5425
14.5091
14.5063
14.5262
14.5614
14.6059
14.6552
14.7059
14.756
14.8042
14.8497
14.8923
14.932
14.9688
15.0031
15.0338
14.7149
14.579
14.4658
14.3758
14.3077
14.2585
14.2249
14.2034
14.191
14.1853
14.1841
14.186
14.1897
14.1945
14.1998
14.2053
14.2107
14.2154
14.7109
14.5642
14.4319
14.3142
14.2111
14.1217
14.0449
13.979
13.9227
13.8743
13.8326
13.7963
13.7644
13.7362
13.711
13.6881
13.6673
13.6482
14.7089
14.5577
14.4176
14.2881
14.1691
14.06
13.9604
13.8697
13.7871
13.7119
13.6434
13.5807
13.5233
13.4704
13.4217
13.3765
13.3347
13.2962
14.7076
14.5544
14.4112
14.2771
14.1517
14.0344
13.9249
13.8226
13.7271
13.638
13.5548
13.4771
13.4044
13.3364
13.2727
13.2128
13.1567
13.1049
14.7067
14.5523
14.4076
14.2717
14.1438
14.0235
13.91
13.8031
13.7023
13.6072
13.5175
13.4328
13.3527
13.277
13.2055
13.1377
13.0738
13.0143
14.706
14.5507
14.4052
14.2683
14.1394
14.0178
13.9029
13.7942
13.6914
13.594
13.5017
13.4141
13.331
13.2521
13.1772
13.1059
13.0384
12.9754
14.7055
14.5497
14.4036
14.2662
14.1367
14.0144
13.8988
13.7894
13.6857
13.5873
13.494
13.4053
13.3211
13.2409
13.1646
13.0921
13.0232
12.9589
14.7053
14.5494
14.403
14.2654
14.1356
14.013
13.8971
13.7873
13.6833
13.5846
13.491
13.402
13.3174
13.237
13.1604
13.0876
13.0185
12.954
14.7055
14.5497
14.4035
14.2659
14.1363
14.0139
13.8982
13.7887
13.6851
13.5869
13.4939
13.4056
13.3218
13.2423
13.1668
13.0952
13.0273
12.9641
14.7059
14.5507
14.4051
14.2683
14.1397
14.0186
13.9046
13.7972
13.6961
13.6008
13.5109
13.4262
13.3463
13.2708
13.1996
13.1322
13.0688
13.0101
14.7068
14.5528
14.4093
14.2755
14.151
14.0354
13.928
13.8285
13.7362
13.6506
13.5711
13.4971
13.4282
13.3639
13.3037
13.2474
13.1948
13.1465
14.7086
14.5589
14.4227
14.3001
14.1905
14.0932
14.0069
13.9304
13.8624
13.8017
13.7471
13.6977
13.6527
13.6114
13.5733
13.5378
13.5047
13.4745
14.7142
14.5802
14.4708
14.3853
14.3209
14.274
14.2406
14.2172
14.2011
14.1897
14.1815
14.1749
14.1692
14.1637
14.1579
14.1517
14.145
14.1382
14.7358
14.6588
14.6349
14.6533
14.7004
14.7639
14.8348
14.9066
14.9752
15.0381
15.0941
15.1429
15.1845
15.2193
15.2479
15.2712
15.2897
15.3045
14.8205
14.9298
15.138
15.3946
15.66
15.9121
16.1397
16.3381
16.507
16.649
16.7673
16.8656
16.947
17.0144
17.07
17.116
17.1542
17.186
15.1412
15.7854
16.5169
17.2066
17.7959
18.2811
18.6741
18.9896
19.2424
19.4453
19.6093
19.7428
19.8528
19.9445
20.0221
20.0886
20.1466
20.1979
16.3188
18.2994
19.962
21.2349
22.1812
22.8821
23.4045
23.7999
24.1052
24.3458
24.5397
24.7002
24.8369
24.9572
25.0663
25.1683
25.266
25.361
20.7544
25.6374
28.6921
30.5982
31.8393
32.6631
33.2221
33.6184
33.9173
34.1609
34.3768
34.5826
34.79
35.0061
35.2354
35.4802
35.7411
36.0172
43.961
54.4815
58.7073
60.4206
60.976
60.9911
60.8469
60.7567
60.7876
60.9686
61.309
61.8071
62.4556
63.2442
64.1614
65.1947
66.3294
67.558
332.626
280.253
240.732
210.192
186.153
166.941
151.387
138.653
128.13
119.363
112.007
105.801
100.538
96.0568
92.2292
88.9517
86.141
83.7277
0.108279
0.150018
0.216088
0.287459
0.360103
0.434712
0.5165
0.614149
0.726292
0.852571
0.994477
1.15559
1.34338
1.55188
1.78174
2.03598
2.31629
2.62381
2.95943
3.32391
3.71793
4.14212
4.59707
5.08337
5.60158
6.15231
6.73617
7.35386
8.00616
8.694
9.4185
10.1811
10.9837
11.829
12.7204
13.6633
14.6654
15.738
16.8989
18.1751
19.6089
21.266
23.2495
25.7218
28.9441
33.3462
35.6133
37.8067
40.0851
42.4651
44.9526
47.5524
50.2694
53.1088
56.0758
59.1756
62.4136
65.7954
69.3263
73.0118
76.8574
80.8684
85.0501
89.4075
93.9452
98.668
103.58
108.685
113.985
119.485
125.186
131.089
137.196
143.506
150.018
156.732
163.645
170.752
178.05
185.534
193.197
201.032
209.032
217.186
225.487
233.923
242.486
251.164
259.947
268.824
277.785
286.822
295.926
305.088
314.303
323.565
332.871
342.218
351.605
361.032
370.502
380.017
389.581
399.2
408.878
418.622
428.439
438.333
448.312
458.381
468.545
478.808
489.172
499.638
510.205
520.87
531.628
542.467
553.377
564.339
575.333
586.332
597.303
608.21
619.009
629.652
640.085
650.253
660.094
669.55
678.564
687.083
695.064
702.48
709.329
715.653
721.029
725.234
728.184
729.801
730.011
728.745
725.946
721.568
715.578
707.964
698.733
687.92
675.584
661.814
646.734
630.502
613.3
595.336
576.838
558.061
539.31
520.959
503.432
487.127
472.554
460.46
451.359
443.9
451.827
467.584
485.706
504.412
522.125
537.256
548.359
554.347
554.656
549.263
538.594
523.306
504.049
480.938
453.543
419.5
0.371913
0.297689
0.307287
0.341092
0.391768
0.457671
0.538992
0.635811
0.749156
0.877172
1.02088
1.18134
1.35942
1.55507
1.7685
2.00008
2.25013
2.51892
2.80664
3.11352
3.43979
3.78573
4.15166
4.53797
4.94514
5.37371
5.82433
6.29779
6.79501
7.31709
7.86539
8.44155
9.04758
9.68598
10.3599
11.0731
11.8307
12.6387
13.505
14.4392
15.4531
16.5599
17.7718
19.094
20.5117
21.9623
23.2779
24.5855
25.931
27.3284
28.7829
30.2974
31.8747
33.5171
35.227
37.007
38.8594
40.7867
42.7914
44.8758
47.0423
49.293
51.6301
54.0555
56.5713
59.1789
61.8799
64.6755
67.5667
70.5544
73.6388
76.8202
80.0983
83.4725
86.942
90.5053
94.1607
97.9061
101.739
105.656
109.654
113.73
117.879
122.098
126.381
130.725
135.123
139.573
144.067
148.603
153.175
157.779
162.411
167.067
171.744
176.44
181.151
185.875
190.611
195.358
200.113
204.876
209.646
214.421
219.2
223.981
228.764
233.545
238.321
243.09
247.848
252.591
257.314
262.012
266.678
271.305
275.887
280.416
284.881
289.273
293.58
297.791
301.893
305.871
309.712
313.402
316.925
320.268
323.419
326.368
329.106
331.63
333.941
336.046
337.965
339.729
341.29
342.446
343.166
343.428
343.213
342.504
341.285
339.545
337.276
334.476
331.149
327.306
322.968
318.164
312.933
307.324
301.393
295.209
288.854
282.426
276.034
269.804
263.863
258.354
253.494
249.47
246.443
244.148
244.895
247.982
252.098
256.558
260.749
264.081
266.031
266.204
264.376
260.511
254.746
247.351
238.689
229.196
219.572
213.358
0.712179
0.492559
0.475527
0.509177
0.569816
0.649858
0.745339
0.856274
0.982983
1.12566
1.28461
1.46015
1.65251
1.86185
2.08826
2.33187
2.59281
2.87123
3.16734
3.48136
3.81358
4.16434
4.53404
4.92315
5.33222
5.76189
6.21288
6.68604
7.18234
7.70292
8.24909
8.82234
9.42442
10.0574
10.7234
11.4252
12.1654
12.9473
13.7739
14.6483
15.5733
16.5505
17.5798
18.6568
19.7718
20.9092
22.0553
23.2269
24.4369
25.6921
26.9963
28.352
29.7614
31.2266
32.7495
34.3321
35.9764
37.6844
39.458
41.2992
43.2098
45.1917
47.2466
49.3761
51.5818
53.8651
56.2273
58.6694
61.1924
63.7971
66.484
69.2535
72.1057
75.0403
78.0571
81.1553
84.334
87.592
90.9278
94.3397
97.8256
101.383
105.01
108.704
112.461
116.279
120.154
124.083
128.063
132.09
136.16
140.271
144.418
148.599
152.81
157.047
161.308
165.589
169.887
174.198
178.519
182.847
187.176
191.503
195.824
200.132
204.423
208.69
212.928
217.129
221.286
225.392
229.44
233.421
237.328
241.152
244.885
248.52
252.047
255.459
258.747
261.905
264.924
267.798
270.519
273.084
275.486
277.723
279.793
281.696
283.432
285.003
286.415
287.675
288.787
289.75
290.465
290.88
290.979
290.75
290.181
289.262
287.98
286.326
284.292
281.869
279.051
275.84
272.242
268.269
263.939
259.279
254.315
249.082
243.632
238.026
232.339
226.659
221.031
215.512
210.182
205.215
201.247
198.708
197.806
198.139
199.214
200.638
201.999
202.902
203.007
202.054
199.888
196.471
191.88
186.292
179.972
173.278
166.751
161.879
1.15572
0.744891
0.694663
0.72554
0.791903
0.879904
0.985998
1.109
1.24858
1.40471
1.57747
1.76697
1.97334
2.19667
2.43708
2.69471
2.96971
3.26229
3.5727
3.90126
4.24833
4.6143
4.99966
5.40493
5.83071
6.27765
6.7465
7.23809
7.75336
8.29333
8.85916
9.4521
10.0736
10.725
11.4081
12.1244
12.8756
13.6632
14.4887
15.3529
16.2564
17.1991
18.1802
19.1979
20.2498
21.3333
22.4486
23.6002
24.7929
26.0304
27.3154
28.6501
30.0365
31.4764
32.9719
34.5249
36.1372
37.8107
39.5475
41.3494
43.2183
45.156
47.1645
49.2453
51.4002
53.6308
55.9386
58.3251
60.7914
63.3388
65.9683
68.6808
71.4769
74.3573
77.3223
80.3719
83.5063
86.7251
90.0278
93.4139
96.8823
100.432
104.062
107.769
111.554
115.413
119.344
123.345
127.413
131.546
135.74
139.991
144.298
148.655
153.06
157.507
161.993
166.514
171.063
175.636
180.228
184.832
189.441
194.049
198.648
203.229
207.784
212.304
216.778
221.197
225.55
229.827
234.018
238.111
242.097
245.966
249.707
253.312
256.773
260.08
263.228
266.209
269.018
271.651
274.103
276.374
278.462
280.368
282.093
283.64
285.012
286.213
287.247
288.118
288.831
289.335
289.573
289.522
289.172
288.512
287.532
286.22
284.564
282.549
280.164
277.392
274.219
270.632
266.628
262.208
257.383
252.175
246.6
240.659
234.39
227.841
221.076
214.203
207.238
200.199
193.124
186.635
181.52
177.762
175.288
173.873
173.278
173.238
173.391
173.391
172.942
171.817
169.852
166.985
163.247
158.759
153.72
148.408
143.196
138.736
1.69363
1.03983
0.941625
0.959063
1.02306
1.11534
1.2292
1.36183
1.51201
1.67924
1.86337
2.06439
2.28238
2.51748
2.76988
3.03978
3.32744
3.63316
3.95729
4.30022
4.66237
5.04421
5.44627
5.8691
6.31331
6.77957
7.2686
7.78118
8.31816
8.88046
9.46906
10.085
10.7294
11.4034
12.1082
12.8449
13.6145
14.4181
15.2565
16.1302
17.0396
17.9849
18.9661
19.9832
21.0363
22.126
23.254
24.4225
25.6344
26.8921
28.1978
29.5536
30.9613
32.423
33.9405
35.5159
37.1511
38.8483
40.6093
42.4363
44.3314
46.2966
48.3339
50.4454
52.633
54.8988
57.2446
59.6722
62.1836
64.7804
67.4641
70.2365
73.0988
76.0524
79.0984
82.238
85.4719
88.8009
92.2254
95.7459
99.3624
103.075
106.883
110.786
114.784
118.875
123.057
127.33
131.69
136.137
140.666
145.276
149.961
154.72
159.547
164.438
169.387
174.389
179.439
184.528
189.65
194.798
199.962
205.133
210.301
215.455
220.583
225.674
230.713
235.687
240.582
245.385
250.083
254.661
259.106
263.404
267.545
271.515
275.307
278.909
282.315
285.518
288.511
291.29
293.85
296.191
298.311
300.213
301.897
303.368
304.628
305.68
306.525
307.168
307.607
307.767
307.62
307.154
306.359
305.225
303.74
301.889
299.658
297.029
293.987
290.515
286.585
282.168
277.25
271.827
265.903
259.511
252.683
245.365
237.578
229.362
220.767
211.849
202.628
193.211
184.194
176.314
169.747
164.48
160.475
157.635
155.816
154.797
154.267
153.882
153.344
152.424
150.915
148.711
145.788
142.219
138.15
133.796
129.422
125.341
2.2765
1.35298
1.19124
1.18752
1.2463
1.34055
1.45999
1.60008
1.75865
1.93472
2.12785
2.33794
2.56506
2.80942
3.07128
3.35096
3.64885
3.96534
4.30089
4.65596
5.03106
5.4267
5.84344
6.28186
6.74257
7.22623
7.73353
8.2652
8.82203
9.40484
10.0145
10.6519
11.318
12.0136
12.7399
13.4976
14.2876
15.1108
15.968
16.8597
17.7866
18.7493
19.7484
20.7847
21.8593
22.9734
24.1288
25.3273
26.571
27.862
29.2023
30.5939
32.0388
33.5389
35.0964
36.7132
38.3916
40.1338
41.9419
43.8183
45.7652
47.7849
49.8799
52.0524
54.3049
56.6396
59.0591
61.5655
64.1613
66.8488
69.6301
72.5076
75.4833
78.5593
81.7376
85.0201
88.4084
91.9042
95.5089
99.2238
103.05
106.988
111.04
115.204
119.481
123.871
128.374
132.988
137.712
142.544
147.482
152.522
157.663
162.899
168.227
173.642
179.138
184.709
190.348
196.048
201.801
207.598
213.429
219.284
225.151
231.018
236.869
242.691
248.466
254.179
259.81
265.344
270.762
276.048
281.185
286.156
290.942
295.53
299.907
304.062
307.984
311.665
315.098
318.278
321.194
323.842
326.22
328.329
330.169
331.742
333.048
334.091
334.869
335.381
335.615
335.49
334.996
334.125
332.867
331.212
329.145
326.649
323.704
320.292
316.395
312.002
307.091
301.593
295.484
288.753
281.383
273.377
264.741
255.478
245.602
235.159
224.185
212.78
200.94
189.51
178.952
169.526
161.331
154.428
148.865
144.653
141.736
139.952
139.02
138.579
138.259
137.743
136.839
135.39
133.311
130.616
127.407
123.853
120.152
116.493
2.84911
1.64622
1.42237
1.39834
1.45114
1.54588
1.6691
1.81465
1.97953
2.16226
2.36218
2.57906
2.81298
3.06418
3.33303
3.61995
3.92543
4.24999
4.59417
4.95852
5.34361
5.75
6.17829
6.62907
7.10297
7.60064
8.12274
8.66999
9.24313
9.84292
10.4702
11.1257
11.8103
12.5248
13.2702
14.0473
14.8569
15.6998
16.5769
17.489
18.4369
19.4216
20.4441
21.5055
22.607
23.7502
24.9368
26.1686
27.4474
28.7752
30.1539
31.5856
33.0723
34.6161
36.2192
37.8839
39.6124
41.407
43.2704
45.2048
47.2129
49.2974
51.4608
53.7059
56.0354
58.4521
60.9589
63.5585
66.2538
69.0476
71.9428
74.9423
78.0487
81.265
84.5936
88.0374
91.5987
95.2799
99.0834
103.011
107.065
111.247
115.558
119.999
124.572
129.276
134.112
139.08
144.178
149.406
154.761
160.241
165.843
171.564
177.399
183.344
189.392
195.539
201.778
208.1
214.497
220.962
227.484
234.053
240.657
247.282
253.914
260.536
267.13
273.674
280.148
286.529
292.797
298.932
304.916
310.723
316.328
321.712
326.858
331.749
336.373
340.718
344.777
348.55
352.014
355.155
357.967
360.447
362.594
364.408
365.887
367.029
367.834
368.296
368.37
367.996
367.173
365.894
364.15
361.929
359.216
355.99
352.228
347.903
342.989
337.455
331.256
324.337
316.672
308.246
299.043
289.051
278.265
266.753
254.48
241.569
227.98
214.146
200.561
187.64
175.625
164.658
154.851
146.323
139.2
133.59
129.537
126.967
125.656
125.242
125.291
125.384
125.206
124.59
123.399
121.585
119.207
116.396
113.311
110.096
3.35253
1.90287
1.62658
1.58452
1.63112
1.72512
1.85037
1.99943
2.16856
2.35585
2.56042
2.78194
3.02047
3.27628
3.54979
3.84152
4.15204
4.48197
4.83192
5.20252
5.59439
6.00815
6.44443
6.90386
7.38708
7.89475
8.42755
8.98617
9.57134
10.1838
10.8244
11.4938
12.1929
12.9225
13.6835
14.4768
15.3031
16.1635
17.0589
17.9902
18.9584
19.9647
21.0103
22.0964
23.2245
24.3962
25.6131
26.877
28.1898
29.5535
30.97
32.4414
33.9698
35.5575
37.2068
38.9201
40.6999
42.5486
44.4691
46.4639
48.536
50.6882
52.9235
55.2449
57.6555
60.1585
62.7572
65.4548
68.2545
71.1599
74.1741
77.3007
80.5428
83.904
87.3875
90.9965
94.7342
98.6035
102.607
106.749
111.03
115.453
120.021
124.734
129.595
134.604
139.763
145.07
150.527
156.131
161.883
167.779
173.817
179.993
186.305
192.747
199.315
206.002
212.802
219.709
226.714
233.81
240.988
248.24
255.554
262.919
270.322
277.745
285.17
292.572
299.929
307.211
314.391
321.446
328.365
335.119
341.663
347.969
354.013
359.775
365.236
370.377
375.181
379.636
383.722
387.428
390.744
393.665
396.187
398.306
400.017
401.315
402.196
402.648
402.568
401.948
400.78
399.059
396.776
393.916
390.461
386.385
381.659
376.245
370.113
363.223
355.525
346.963
337.502
327.121
315.842
303.642
290.465
276.553
261.707
246.323
230.774
215.416
200.541
186.384
173.096
160.789
149.58
139.608
131.038
124.05
118.792
115.314
113.495
113.021
113.425
114.189
114.861
115.143
114.886
113.982
112.442
110.366
107.891
105.142
3.78885
2.12309
1.80117
1.74263
1.78263
1.87455
2.00007
2.15065
2.32194
2.5117
2.71883
2.9429
3.18395
3.44224
3.71823
4.01249
4.32564
4.65834
5.01127
5.38512
5.78055
6.19825
6.63887
7.10308
7.59158
8.10503
8.64415
9.20965
9.80227
10.4228
11.072
11.7506
12.4596
13.1998
13.9721
14.7774
15.6166
16.4907
17.4009
18.3481
19.3335
20.3585
21.4242
22.5321
23.6837
24.8808
26.1249
27.418
28.7619
30.1586
31.6103
33.119
34.6871
36.3169
38.0109
39.7717
41.6018
43.5042
45.4815
47.5369
49.6733
51.894
54.2022
56.6013
59.0946
61.6858
64.3784
67.176
70.0825
73.1015
76.2368
79.4923
82.8719
86.3793
90.0183
93.7927
97.706
101.762
105.964
110.315
114.818
119.475
124.291
129.265
134.401
139.699
145.162
150.788
156.579
162.533
168.65
174.927
181.363
187.955
194.698
201.589
208.623
215.794
223.096
230.524
238.071
245.73
253.495
261.358
269.313
277.351
285.462
293.635
301.851
310.082
318.31
326.498
334.598
342.578
350.41
358.061
365.493
372.676
379.582
386.181
392.45
398.363
403.897
409.033
413.75
418.033
421.871
425.254
428.175
430.627
432.6
434.088
435.079
435.54
435.344
434.499
432.998
430.835
427.998
424.469
420.224
415.235
409.463
402.862
395.388
386.994
377.645
367.287
355.862
343.308
329.779
315.248
299.467
283.162
266.293
249.269
232.355
215.839
199.916
184.747
170.45
157.12
144.855
133.773
124.03
115.826
109.384
104.884
102.363
101.627
102.241
103.616
105.16
106.416
107.13
107.169
106.493
105.17
103.321
101.071
4.14875
2.30413
1.94399
1.87074
1.90381
1.99237
2.11641
2.26653
2.43791
2.62804
2.83565
3.06024
3.30177
3.5605
3.83688
4.13148
4.44494
4.77794
5.13118
5.50539
5.90127
6.31955
6.76093
7.22614
7.7159
8.23093
8.77199
9.33984
9.93527
10.5591
11.2121
11.8952
12.6092
13.3551
14.1339
14.9465
15.794
16.6774
17.598
18.5568
19.5553
20.5947
21.6765
22.8022
23.9735
25.192
26.4596
27.7781
29.1497
30.5763
32.0602
33.6037
35.2092
36.8793
38.6164
40.4235
42.3034
44.259
46.2934
48.4099
50.6118
52.9025
55.2856
57.7647
60.3435
63.0259
65.8158
68.7172
71.7342
74.8709
78.1314
81.5201
85.041
88.6983
92.4963
96.4389
100.53
104.774
109.174
113.734
118.457
123.346
128.404
133.632
139.034
144.609
150.361
156.288
162.392
168.672
175.126
181.754
188.552
195.518
202.648
209.938
217.383
224.979
232.72
240.599
248.611
256.752
265.015
273.397
281.896
290.507
299.23
308.061
316.991
325.978
334.968
343.92
352.793
361.552
370.163
378.589
386.795
394.747
402.41
409.751
416.741
423.348
429.545
435.307
440.609
445.434
449.765
453.59
456.898
459.68
461.923
463.618
464.748
465.239
464.966
463.934
462.133
459.551
456.172
451.973
446.925
440.992
434.129
426.28
417.38
407.352
396.221
383.942
370.435
355.491
339.61
322.803
305.107
286.995
268.628
250.326
232.319
214.83
198.03
182.058
167.017
152.987
140.037
128.243
117.715
108.616
101.176
95.6606
92.2771
91.0286
91.6077
93.4252
95.7715
98.0162
99.7405
100.756
100.978
100.44
99.2489
97.5322
4.42548
2.44393
2.0538
1.96803
1.99412
2.07824
2.19919
2.34697
2.51647
2.70495
2.91104
3.13416
3.37421
3.6314
3.90615
4.19899
4.51054
4.84147
5.19249
5.56433
5.95772
6.37343
6.8122
7.27481
7.76203
8.27466
8.81349
9.37936
9.97311
10.5956
11.2478
11.9305
12.6448
13.3917
14.1722
14.9874
15.8385
16.7266
17.6531
18.6192
19.6264
20.6762
21.77
22.9096
24.0967
25.3331
26.6209
27.9619
29.3584
30.8126
32.3268
33.9037
35.5456
37.2554
39.0359
40.89
42.8209
44.8317
46.9259
49.1069
51.3783
53.7437
56.2071
58.7724
61.4435
64.2246
67.1199
70.1338
73.2706
76.5347
79.9307
83.4628
87.1357
90.9538
94.9214
99.0429
103.322
107.764
112.372
117.149
122.1
127.226
132.531
138.017
143.685
149.537
155.574
161.796
168.203
174.795
181.57
188.527
195.661
202.972
210.453
218.102
225.913
233.881
242.001
250.266
258.672
267.212
275.885
284.688
293.623
302.693
311.905
321.273
330.772
340.334
349.906
359.446
368.916
378.277
387.495
396.531
405.349
413.912
422.182
430.123
437.7
444.878
451.626
457.913
463.712
469.001
473.76
477.973
481.627
484.708
487.203
489.103
490.386
490.92
490.599
489.414
487.344
484.367
480.459
475.592
469.726
462.819
454.818
445.66
435.256
423.433
410.4
396.105
380.519
363.649
345.831
327.204
307.963
288.423
268.824
249.429
230.465
212.136
194.61
178.019
162.46
147.996
134.672
122.524
111.604
102.005
93.8989
87.5506
83.2776
81.304
81.5545
83.5537
86.5404
89.718
92.4781
94.4923
95.6459
95.9301
95.4349
94.2905
4.61669
2.54195
2.13047
2.03471
2.05412
2.13302
2.24952
2.39333
2.55914
2.74413
2.94684
3.16664
3.40337
3.65716
3.92837
4.21747
4.52504
4.85171
5.19817
5.56514
5.95337
6.36366
6.79678
7.25357
7.73486
8.2415
8.77437
9.33438
9.92246
10.5396
11.1867
11.8649
12.5752
13.3188
14.0968
14.9105
15.7611
16.6499
17.5785
18.5482
19.5606
20.6174
21.7203
22.871
24.0715
25.3239
26.6301
27.9925
29.4133
30.895
32.4403
34.0517
35.732
37.4844
39.3118
41.2175
43.2049
45.2774
47.4388
49.6927
52.0431
54.4941
57.0497
59.7141
62.4916
65.3866
68.4037
71.5474
74.8223
78.2331
81.7844
85.481
89.3275
93.3283
97.4882
101.811
106.302
110.964
115.802
120.819
126.019
131.403
136.976
142.736
148.687
154.829
161.163
167.688
174.404
181.311
188.405
195.684
203.145
210.784
218.597
226.578
234.722
243.023
251.477
260.077
268.814
277.684
286.685
295.818
305.085
314.495
324.062
333.812
343.701
353.657
363.628
373.571
383.448
393.222
402.855
412.311
421.551
430.539
439.234
447.599
455.596
463.188
470.338
477.015
483.188
488.831
493.92
498.436
502.364
505.685
508.383
510.458
511.865
512.425
512.052
510.715
508.376
504.99
500.528
494.957
488.226
480.28
471.065
460.522
448.581
435.184
420.431
404.346
386.995
368.496
349.085
328.971
308.396
287.632
266.94
246.577
226.774
207.737
189.634
172.594
156.705
142.019
128.56
116.331
105.335
95.5971
87.2023
80.3393
75.3266
72.5443
72.1992
74.0639
77.4427
81.4198
85.1836
88.2207
90.3296
91.4716
91.711
91.1781
4.72347
2.59906
2.17489
2.07193
2.08529
2.15857
2.26965
2.40819
2.56884
2.74877
2.94653
3.16141
3.39319
3.64195
3.90795
4.19158
4.49335
4.81385
5.15373
5.5137
5.89453
6.29701
6.72198
7.1703
7.64288
8.14064
8.66456
9.21561
9.79485
10.4033
11.0422
11.7126
12.4158
13.153
13.9255
14.7348
15.5823
16.4694
17.3979
18.3693
19.3854
20.4481
21.5593
22.721
23.9353
25.2045
26.5309
27.917
29.3654
30.8788
32.4601
34.1123
35.8384
37.6418
39.5258
41.4941
43.5504
45.6985
47.9425
50.2864
52.7346
55.2914
57.9613
60.7488
63.6584
66.6947
69.8624
73.1665
76.6117
80.203
83.9449
87.8424
91.9
96.1224
100.514
105.079
109.821
114.745
119.853
125.15
130.638
136.321
142.199
148.273
154.541
161.005
167.665
174.52
181.569
188.808
196.237
203.85
211.643
219.611
227.75
236.051
244.51
253.119
261.874
270.772
279.795
288.936
298.197
307.578
317.085
326.726
336.52
346.495
356.61
366.791
376.986
387.151
397.248
407.24
417.092
426.768
436.231
445.442
454.364
462.958
471.185
479.007
486.387
493.29
499.683
505.537
510.826
515.528
519.622
523.085
525.902
528.074
529.517
530.024
529.53
527.979
525.316
521.489
516.456
510.169
502.572
493.609
483.228
471.387
458.056
443.233
426.976
409.359
390.501
370.563
349.761
328.335
306.55
284.682
263.009
241.796
221.286
201.686
183.164
165.843
149.803
135.08
121.678
109.576
98.738
89.1373
80.7795
73.7513
68.2819
64.7812
63.6838
65.1011
68.5582
73.1208
77.7916
81.843
84.9207
86.9475
87.9566
88.0722
4.74942
2.61719
2.18878
2.08159
2.08995
2.15765
2.26281
2.39523
2.5497
2.72347
2.91511
3.12389
3.34954
3.59203
3.85154
4.12839
4.42301
4.73593
5.06776
5.41921
5.79103
6.18406
6.59916
7.03726
7.49934
7.98642
8.49954
9.03984
9.60846
10.2066
10.8356
11.4968
12.1915
12.9212
13.6875
14.4919
15.3361
16.2219
17.151
18.1255
19.1473
20.2186
21.3415
22.5184
23.7517
25.044
26.398
27.8164
29.3022
30.8586
32.4887
34.196
35.984
37.8563
39.8169
41.8697
44.0189
46.2687
48.6238
51.0886
53.6678
56.3664
59.1892
62.1413
65.2269
68.4508
71.8181
75.3338
79.0028
82.8301
86.8205
90.9785
95.3086
99.8152
104.502
109.373
114.432
119.682
125.126
130.767
136.607
142.65
148.899
155.344
161.986
168.826
175.861
183.091
190.513
198.122
205.916
213.888
222.032
230.344
238.814
247.436
256.201
265.101
274.128
283.275
292.53
301.887
311.343
320.899
330.559
340.332
350.235
360.295
370.487
380.737
390.991
401.204
411.341
421.366
431.245
440.944
450.428
459.662
468.608
477.23
485.489
493.348
500.77
507.719
514.161
520.064
525.401
530.144
534.269
537.747
540.569
542.722
544.064
544.421
543.713
541.867
538.817
534.503
528.87
521.859
513.413
503.476
492.003
478.97
464.372
448.232
430.609
411.604
391.365
370.082
347.985
325.338
302.43
279.558
257.018
235.09
214.022
194.024
175.259
157.84
141.832
127.252
114.084
102.281
91.7822
82.5197
74.4417
67.5458
61.9362
57.9492
56.1096
56.8481
60.0475
64.9093
70.3168
75.3176
79.363
82.2833
84.0867
84.8816
4.70063
2.5992
2.17463
2.06636
2.07119
2.13391
2.23323
2.35931
2.50722
2.67437
2.85938
3.06154
3.28049
3.51615
3.7686
4.03806
4.32491
4.62963
4.9528
5.29513
5.65739
6.04045
6.44523
6.87275
7.32408
7.80035
8.30274
8.83248
9.39092
9.97947
10.5996
11.2529
11.941
12.6656
13.4284
14.2315
15.0767
15.9661
16.9019
17.8864
18.9219
20.0109
21.1561
22.3602
23.626
24.9567
26.3552
27.8251
29.3696
30.9924
32.6974
34.4883
36.3695
38.345
40.4193
42.597
44.8828
47.2816
49.7984
52.4383
55.2066
58.1086
61.1501
64.3374
67.6734
71.1623
74.8099
78.6213
82.6015
86.7551
91.0867
95.6004
100.3
105.189
110.271
115.549
121.024
126.7
132.577
138.657
144.94
151.428
158.119
165.009
172.095
179.376
186.847
194.507
202.349
210.369
218.561
226.918
235.433
244.097
252.901
261.837
270.894
280.062
289.33
298.69
308.13
317.645
327.229
336.882
346.608
356.414
366.317
376.341
386.473
396.641
406.793
416.887
426.887
436.762
446.48
456.009
465.318
474.373
483.142
491.59
499.681
507.38
514.651
521.458
527.767
533.546
538.764
543.391
547.393
550.743
553.433
555.415
556.51
556.581
555.534
553.285
549.757
544.881
538.591
530.819
521.504
510.594
498.05
483.854
468.018
450.582
431.62
411.256
389.664
367.062
343.709
319.9
295.951
272.183
248.911
226.426
204.979
184.777
165.97
148.655
132.875
118.624
105.863
94.5207
84.5114
75.741
68.1076
61.5482
56.0805
51.8964
49.4829
49.4621
52.1138
56.9451
62.8461
68.6659
73.6351
77.4383
80.0456
81.5404
4.58592
2.54883
2.13565
2.02969
2.03303
2.0921
2.18644
2.30681
2.44866
2.60966
2.78853
2.98452
3.19724
3.4265
3.67234
3.93493
4.21457
4.51172
4.82699
5.1611
5.51488
5.88927
6.2853
6.7041
7.1469
7.61502
8.10981
8.63255
9.18488
9.76848
10.3851
11.0367
11.7252
12.4527
13.2214
14.0335
14.8914
15.7977
16.7551
17.7662
18.8341
19.9617
21.1523
22.4093
23.7362
25.1366
26.6145
28.1739
29.819
31.5541
33.3839
35.313
37.3464
39.4891
41.7462
44.1232
46.6255
49.2586
52.0281
54.9398
57.9993
61.2122
64.5842
68.1207
71.8262
75.7054
79.7632
84.0042
88.4327
93.0527
97.8678
102.881
108.095
113.511
119.132
124.958
130.989
137.226
143.668
150.313
157.161
164.208
171.451
178.885
186.506
194.309
202.288
210.437
218.751
227.221
235.841
244.601
253.492
262.505
271.63
280.855
290.169
299.559
309.014
318.524
328.077
337.666
347.286
356.937
366.62
376.345
386.127
395.988
405.911
415.834
425.711
435.504
445.181
454.712
464.071
473.229
482.158
490.83
499.215
507.282
515
522.334
529.253
535.723
541.709
547.179
552.1
556.436
560.15
563.213
565.609
567.232
567.897
567.504
565.95
563.142
558.994
553.426
546.359
537.72
527.443
515.474
501.778
486.343
469.194
450.386
430.02
408.246
385.269
361.341
336.76
311.852
286.964
262.44
238.609
215.767
194.161
173.982
155.364
138.376
123.038
109.309
97.1297
86.4018
77.0037
68.8155
61.7236
55.635
50.5076
46.4196
43.7005
43.0126
44.9462
49.4278
55.5233
61.964
67.7567
72.4037
75.8021
78.0033
4.41706
2.47077
2.07611
1.97633
1.98105
2.0388
2.13015
2.24663
2.3843
2.54109
2.71576
2.90752
3.11589
3.3407
3.58202
3.8401
4.11499
4.40728
4.71768
5.047
5.39621
5.76636
6.15865
6.57438
7.01496
7.48191
7.97686
8.50155
9.05791
9.648
10.274
10.9384
11.6435
12.392
13.1867
14.0305
14.9264
15.8778
16.8878
17.9603
19.0988
20.3074
21.5902
22.9516
24.3961
25.9286
27.5539
29.2773
31.1042
33.0399
35.0903
37.2613
39.5587
41.9888
44.5578
47.2719
50.1374
53.1605
56.3475
59.7044
63.2368
66.9505
70.8504
74.9415
79.228
83.7137
88.4023
93.297
98.4003
103.714
109.24
114.979
120.93
127.093
133.466
140.046
146.832
153.818
161.002
168.378
175.941
183.686
191.607
199.695
207.943
216.344
224.89
233.573
242.384
251.314
260.354
269.494
278.724
288.034
297.412
306.846
316.323
325.83
335.356
344.887
354.415
363.934
373.438
382.926
392.403
401.88
411.371
420.892
430.406
439.871
449.253
458.52
467.645
476.604
485.373
493.928
502.248
510.306
518.079
525.539
532.658
539.409
545.759
551.677
557.132
562.089
566.512
570.36
573.592
576.176
578.055
579.069
579.082
577.995
575.707
572.12
567.139
560.67
552.626
542.924
531.493
518.277
503.245
486.397
467.769
447.444
425.552
402.279
377.871
352.62
326.861
300.96
275.288
250.205
226.046
203.102
181.605
161.72
143.554
127.139
112.469
99.4625
88.016
78.0097
69.313
61.7942
55.3273
49.8017
45.1405
41.3463
38.607
37.4622
38.6637
42.5503
48.5233
55.3285
61.7857
67.1992
71.347
74.2421
4.20875
2.37163
2.0027
1.91389
1.9241
1.98439
2.07651
2.19304
2.33068
2.48747
2.66212
2.85388
3.06205
3.28657
3.52761
3.78552
4.06077
4.35408
4.66629
4.99845
5.35173
5.72744
6.12704
6.55214
7.00449
7.48601
7.99878
8.54509
9.12747
9.74867
10.4116
11.1196
11.876
12.6843
13.5484
14.4723
15.4602
16.5166
17.6462
18.8539
20.1451
21.5252
23.0003
24.5763
26.2597
28.0572
29.9756
32.022
34.2036
36.5277
39.0016
41.6329
44.4291
47.3974
50.5452
53.8795
57.407
61.1341
65.0667
69.21
73.5684
78.146
82.9455
87.9695
93.2192
98.6955
104.398
110.327
116.481
122.856
129.451
136.261
143.28
150.502
157.921
165.529
173.318
181.279
189.404
197.684
206.11
214.673
223.362
232.168
241.081
250.089
259.184
268.356
277.595
286.891