/*--------------------------------*- C++ -*----------------------------------*\
| =========                 |                                                 |
| \\      /  F ield         | OpenFOAM: The Open Source CFD Toolbox           |
|  \\    /   O peration     | Version:  1.4.2                                 |
|   \\  /    A nd           | Web:      http://www.openfoam.org               |
|    \\/     M anipulation  |                                                 |
\*---------------------------------------------------------------------------*/
FoamFile
{
    version     2.0;
    format      ascii;
    class       volScalarField;
    object      k;
    location    "600";
}
// * * * * * * * * * * * * * * * * * * * * * * * * * * * * * * * * * * * * * //

dimensions      [0 2 -2 0 0 0 0];

internalField   nonuniform List<scalar> 
12225
(
0.315115
0.271063
0.237884
0.212505
0.192899
0.177689
0.165905
0.156844
0.149989
0.144946
0.141409
0.139137
0.137932
0.137631
0.138095
0.139206
0.14086
0.143164
0.365357
0.357609
0.353827
0.353685
0.356737
0.362617
0.371003
0.381598
0.394135
0.408363
0.424045
0.440952
0.458861
0.477554
0.496813
0.516417
0.536064
0.556336
0.370187
0.364636
0.360183
0.356898
0.354768
0.35374
0.353744
0.354696
0.356513
0.35911
0.362406
0.366321
0.370773
0.375675
0.380929
0.386412
0.391933
0.397348
0.371735
0.367477
0.363487
0.359996
0.357015
0.354545
0.352573
0.351071
0.350002
0.349327
0.349007
0.349003
0.349275
0.349781
0.350478
0.351311
0.352218
0.353162
0.372438
0.369049
0.365589
0.362327
0.359334
0.356629
0.354215
0.352079
0.350206
0.348578
0.347175
0.345975
0.344956
0.344095
0.343369
0.342752
0.342221
0.341764
0.37275
0.369943
0.366991
0.364059
0.36125
0.358609
0.356152
0.353883
0.351796
0.349881
0.348129
0.346526
0.34506
0.343719
0.342489
0.341356
0.340311
0.339355
0.372878
0.37041
0.367853
0.365268
0.362721
0.360257
0.357902
0.355673
0.353575
0.351606
0.349763
0.348039
0.346426
0.344916
0.343502
0.342175
0.340931
0.339783
0.372918
0.370599
0.368258
0.365905
0.363575
0.361294
0.359084
0.356962
0.354936
0.35301
0.351186
0.349461
0.34783
0.34629
0.344834
0.343457
0.342157
0.340951
0.372932
0.370687
0.368473
0.366276
0.364108
0.361981
0.359909
0.357903
0.355972
0.35412
0.352351
0.350665
0.34906
0.347533
0.346082
0.344703
0.343393
0.342172
0.372937
0.37073
0.368595
0.366509
0.36447
0.362479
0.360541
0.358659
0.35684
0.355087
0.353402
0.351786
0.350239
0.34876
0.347346
0.345996
0.34471
0.343505
0.372937
0.370746
0.368651
0.366633
0.364683
0.362794
0.360965
0.359194
0.357482
0.35583
0.354239
0.352709
0.351239
0.349828
0.348475
0.347178
0.345939
0.344774
0.372936
0.370748
0.36867
0.366685
0.364784
0.362959
0.361204
0.359515
0.357889
0.356323
0.354817
0.353368
0.351975
0.350637
0.349352
0.348118
0.346936
0.345826
0.372936
0.370745
0.36867
0.366697
0.364818
0.363025
0.361311
0.35967
0.358099
0.356592
0.355147
0.35376
0.35243
0.351153
0.349927
0.34875
0.347625
0.346566
0.372937
0.370743
0.368665
0.366694
0.36482
0.363038
0.36134
0.359721
0.358177
0.356701
0.35529
0.353941
0.352649
0.351413
0.350228
0.349093
0.348009
0.346991
0.372939
0.370742
0.368661
0.366687
0.364812
0.363031
0.361336
0.359723
0.358187
0.356723
0.355326
0.353992
0.352719
0.351502
0.350338
0.349226
0.348165
0.347172
0.372943
0.370744
0.368661
0.366683
0.364805
0.363021
0.361324
0.35971
0.358174
0.356711
0.355316
0.353986
0.352717
0.351505
0.350348
0.349244
0.348193
0.34721
0.372948
0.370749
0.368663
0.366683
0.364802
0.363015
0.361315
0.359698
0.358159
0.356693
0.355296
0.353964
0.352694
0.351482
0.350325
0.349221
0.348171
0.347189
0.372951
0.370752
0.368664
0.366683
0.3648
0.363011
0.361309
0.35969
0.358148
0.356679
0.355279
0.353944
0.352671
0.351456
0.350295
0.349188
0.348136
0.347151
0.372947
0.370748
0.368661
0.366679
0.364796
0.363006
0.361303
0.359681
0.358137
0.356664
0.35526
0.353919
0.35264
0.351418
0.35025
0.349136
0.348074
0.347082
0.372943
0.370743
0.368657
0.366675
0.364791
0.362998
0.36129
0.359662
0.358109
0.356625
0.355208
0.353853
0.352558
0.351318
0.350131
0.348996
0.347913
0.346899
0.372938
0.370739
0.368651
0.366666
0.364774
0.362969
0.361245
0.359595
0.358015
0.356501
0.35505
0.353657
0.352321
0.351038
0.349807
0.348626
0.347497
0.346437
0.372934
0.370732
0.368636
0.366633
0.364713
0.362869
0.361096
0.359388
0.357743
0.356158
0.35463
0.353158
0.351742
0.350378
0.349066
0.347806
0.3466
0.345466
0.372927
0.37071
0.36858
0.36652
0.364522
0.362581
0.360696
0.358865
0.357091
0.355374
0.353714
0.352113
0.350571
0.349086
0.34766
0.346291
0.344983
0.343755
0.37291
0.370639
0.368409
0.366205
0.364031
0.361895
0.359804
0.357767
0.35579
0.35388
0.35204
0.350272
0.348576
0.346952
0.3454
0.343919
0.34251
0.341192
0.372856
0.370429
0.367957
0.365457
0.362965
0.360511
0.358117
0.355802
0.353576
0.351445
0.349413
0.347478
0.345639
0.343893
0.342238
0.34067
0.339188
0.337811
0.372693
0.369884
0.366925
0.36392
0.36096
0.35809
0.355338
0.352721
0.350245
0.34791
0.345715
0.343654
0.341721
0.339912
0.338217
0.336632
0.335153
0.333791
0.37223
0.368599
0.364817
0.361096
0.357538
0.354185
0.35106
0.348165
0.345497
0.343048
0.340806
0.338761
0.336897
0.335203
0.333664
0.332269
0.331006
0.329878
0.370946
0.365685
0.36055
0.355801
0.35149
0.347645
0.344266
0.341334
0.338816
0.33668
0.334888
0.333408
0.332207
0.331257
0.33053
0.330001
0.329647
0.329456
0.366354
0.35712
0.349251
0.3429
0.337988
0.334392
0.331963
0.330546
0.330003
0.33021
0.331061
0.332464
0.334338
0.336614
0.33923
0.342132
0.345268
0.348631
0.329178
0.293648
0.265348
0.242403
0.223549
0.207891
0.194768
0.183688
0.174272
0.166228
0.159328
0.153386
0.148256
0.143817
0.139971
0.136635
0.133742
0.131232
0.0027553
0.00358539
0.00457176
0.00552854
0.00642289
0.00727988
0.00816347
0.00915902
0.0102384
0.0113882
0.0126135
0.0139349
0.0153994
0.0169448
0.0185697
0.0202864
0.022097
0.024
0.0259927
0.0280718
0.0302344
0.0324774
0.034798
0.0371939
0.0396628
0.0422029
0.0448127
0.047491
0.0502373
0.0530515
0.0559345
0.0588881
0.0619156
0.0650227
0.0682179
0.0715146
0.0749332
0.078504
0.0822721
0.0863034
0.0906916
0.0955661
0.101098
0.107492
0.114954
0.123569
0.134658
0.140357
0.145902
0.151568
0.157374
0.163327
0.169431
0.175691
0.182111
0.188696
0.195451
0.20238
0.209486
0.216772
0.224243
0.2319
0.239747
0.247784
0.256013
0.264435
0.273049
0.281854
0.290849
0.300031
0.309398
0.318944
0.328665
0.338555
0.348608
0.358814
0.369166
0.379653
0.390266
0.400993
0.411822
0.42274
0.433733
0.444789
0.455893
0.467031
0.478189
0.489352
0.500509
0.511644
0.522748
0.533809
0.544817
0.555763
0.566642
0.577449
0.588178
0.598829
0.609402
0.619897
0.630318
0.640669
0.650955
0.661181
0.671355
0.681483
0.691572
0.70163
0.711664
0.721679
0.731682
0.741676
0.751667
0.761654
0.771638
0.781617
0.791587
0.80154
0.811467
0.821352
0.831178
0.840923
0.85056
0.860058
0.869381
0.878488
0.887338
0.895882
0.904074
0.911864
0.919206
0.92606
0.932392
0.938177
0.943416
0.94815
0.952148
0.955106
0.956963
0.957658
0.957128
0.955316
0.95217
0.947645
0.941703
0.934321
0.925492
0.915223
0.903541
0.890495
0.876163
0.860646
0.84408
0.826619
0.80844
0.789745
0.770784
0.75187
0.733391
0.71578
0.699514
0.68498
0.673517
0.664097
0.663822
0.676612
0.692537
0.709532
0.726108
0.740803
0.752252
0.759335
0.761344
0.758036
0.749578
0.736382
0.718906
0.697117
0.670464
0.635867
0.00394926
0.00672414
0.00909445
0.0112464
0.0133284
0.0154401
0.0176461
0.0199207
0.0223099
0.0247993
0.0274182
0.030185
0.0331091
0.0361911
0.0394312
0.0428272
0.0463763
0.050075
0.0539194
0.0579058
0.0620305
0.0662902
0.0706816
0.0752022
0.0798495
0.0846219
0.0895179
0.0945369
0.0996789
0.104945
0.110336
0.115854
0.121505
0.127294
0.133227
0.139316
0.145572
0.152013
0.158659
0.165535
0.172672
0.180101
0.187846
0.195906
0.204213
0.212536
0.221031
0.229378
0.237832
0.246465
0.2553
0.264348
0.273617
0.283116
0.292852
0.302833
0.313067
0.323561
0.334322
0.345357
0.356672
0.368273
0.380165
0.392352
0.404838
0.417626
0.430717
0.444111
0.457809
0.471809
0.486106
0.500697
0.515575
0.530732
0.546159
0.561845
0.577776
0.593938
0.610314
0.626885
0.643633
0.660534
0.677566
0.694704
0.711922
0.729193
0.746489
0.763783
0.781046
0.79825
0.815367
0.832371
0.849237
0.865941
0.882463
0.898784
0.914887
0.930758
0.946387
0.961766
0.97689
0.991757
1.00637
1.02072
1.03482
1.04867
1.06229
1.07567
1.08882
1.10175
1.11448
1.12701
1.13935
1.15151
1.16351
1.17536
1.18708
1.19867
1.21016
1.22157
1.2329
1.24418
1.25542
1.26664
1.27784
1.28904
1.30024
1.31145
1.32266
1.33388
1.3451
1.35632
1.36752
1.37868
1.38979
1.4008
1.41109
1.4207
1.42958
1.43764
1.44478
1.4509
1.45587
1.45959
1.46193
1.46276
1.46198
1.45948
1.45519
1.44905
1.44103
1.43118
1.41957
1.40635
1.39172
1.37595
1.35936
1.34233
1.32539
1.30926
1.29489
1.28341
1.27435
1.27166
1.27779
1.29075
1.30639
1.32253
1.33686
1.34686
1.35012
1.34478
1.32987
1.30538
1.2722
1.23183
1.18608
1.1369
1.08677
1.03741
0.00609031
0.0104963
0.0140914
0.0174036
0.020619
0.0238085
0.0269753
0.0301832
0.0334799
0.0368976
0.0404608
0.0441855
0.0480821
0.0521571
0.0564127
0.0608485
0.065463
0.070254
0.0752193
0.0803566
0.0856638
0.0911388
0.0967797
0.102585
0.108554
0.114685
0.120979
0.127435
0.134055
0.140841
0.147795
0.154921
0.162223
0.169708
0.177381
0.185252
0.19333
0.201625
0.21015
0.218915
0.227931
0.237205
0.246737
0.256516
0.26651
0.276671
0.287012
0.29754
0.308294
0.319297
0.330564
0.342109
0.35394
0.366069
0.378506
0.391261
0.404344
0.417765
0.431534
0.445661
0.460154
0.475023
0.490275
0.505917
0.521955
0.538396
0.555244
0.572501
0.59017
0.60825
0.626742
0.645642
0.664946
0.684646
0.704736
0.725203
0.746036
0.767219
0.788735
0.810564
0.832684
0.855071
0.877697
0.900535
0.923552
0.946717
0.969994
0.993348
1.01674
1.04014
1.06349
1.08678
1.10995
1.13297
1.15582
1.17844
1.20083
1.22294
1.24476
1.26627
1.28744
1.30827
1.32875
1.34886
1.3686
1.38797
1.40696
1.42559
1.44383
1.4617
1.4792
1.49633
1.51309
1.52949
1.54553
1.56121
1.57655
1.59156
1.60624
1.62061
1.6347
1.64851
1.66206
1.67538
1.68847
1.70137
1.71407
1.7266
1.73897
1.75117
1.76322
1.77511
1.78682
1.79836
1.80973
1.82048
1.8303
1.83919
1.84707
1.85385
1.8594
1.8636
1.86633
1.86743
1.86676
1.86416
1.85949
1.85262
1.84345
1.83191
1.81796
1.80165
1.7831
1.7625
1.74014
1.7164
1.69172
1.66665
1.64194
1.61853
1.59729
1.57779
1.56152
1.55351
1.55486
1.5637
1.57751
1.59377
1.60938
1.62081
1.62461
1.61805
1.59963
1.56927
1.52815
1.47834
1.42245
1.36344
1.30468
1.25017
0.00840927
0.0147673
0.0197482
0.024183
0.0283251
0.032283
0.0361763
0.0400882
0.0440782
0.0481894
0.0524522
0.0568873
0.0615086
0.066325
0.0713413
0.07656
0.0819819
0.0876071
0.0934354
0.0994662
0.105699
0.112133
0.118769
0.125605
0.132642
0.13988
0.14732
0.154962
0.162809
0.170863
0.179127
0.187604
0.1963
0.205219
0.214368
0.223754
0.233383
0.243263
0.253401
0.263802
0.274471
0.285412
0.296623
0.308102
0.319843
0.331839
0.344099
0.356638
0.369475
0.382625
0.3961
0.409915
0.424082
0.438613
0.45352
0.468817
0.484516
0.500631
0.517173
0.534157
0.551593
0.569493
0.587871
0.606735
0.626097
0.645965
0.666349
0.687254
0.708688
0.730654
0.753155
0.776193
0.799768
0.823876
0.848513
0.873673
0.899344
0.925516
0.952173
0.979299
1.00687
1.03487
1.06326
1.09203
1.12113
1.15052
1.18018
1.21006
1.24012
1.27031
1.30058
1.33089
1.36118
1.39141
1.42152
1.45146
1.4812
1.51068
1.53986
1.56871
1.59718
1.62524
1.65287
1.68003
1.70671
1.73289
1.75855
1.78367
1.80825
1.83226
1.85568
1.87852
1.90075
1.92236
1.94335
1.96369
1.98338
2.00242
2.02079
2.03851
2.05556
2.07197
2.08772
2.10284
2.11733
2.13121
2.14448
2.15715
2.16922
2.1807
2.19158
2.20186
2.21149
2.22049
2.22884
2.23585
2.24148
2.2457
2.24842
2.24955
2.24899
2.24661
2.24226
2.2358
2.22706
2.21588
2.20209
2.18555
2.16615
2.14382
2.1185
2.09025
2.05921
2.0256
1.98976
1.95207
1.91304
1.87327
1.83356
1.79487
1.75743
1.72373
1.69879
1.68497
1.68217
1.68916
1.70416
1.72452
1.74648
1.76547
1.7768
1.77658
1.76246
1.73401
1.6925
1.64048
1.58123
1.51843
1.45585
1.39764
0.0108483
0.0192226
0.0255685
0.030957
0.0358307
0.0404446
0.0449494
0.0494442
0.0539994
0.0586663
0.063482
0.0684734
0.0736592
0.0790526
0.0846626
0.0904952
0.0965545
0.102843
0.109364
0.116118
0.123106
0.13033
0.13779
0.145487
0.153422
0.161595
0.170008
0.178662
0.187559
0.196702
0.206094
0.215738
0.22564
0.235802
0.246232
0.256933
0.267913
0.279176
0.290728
0.302574
0.314719
0.327165
0.339916
0.352975
0.366346
0.380035
0.394051
0.408408
0.423121
0.438203
0.453668
0.46953
0.485805
0.502505
0.519647
0.537246
0.555316
0.573875
0.592938
0.612522
0.632641
0.653311
0.674549
0.696369
0.718786
0.741813
0.765464
0.78975
0.814684
0.840274
0.866529
0.893456
0.92106
0.949344
0.978309
1.00795
1.03827
1.06926
1.10091
1.1332
1.16612
1.19965
1.23377
1.26845
1.30366
1.33935
1.3755
1.41206
1.44898
1.48621
1.52369
1.56136
1.59917
1.63705
1.67493
1.71275
1.75044
1.78792
1.82515
1.86204
1.89855
1.93461
1.97017
2.00519
2.03961
2.07339
2.1065
2.13889
2.17054
2.20141
2.23146
2.26067
2.289
2.3164
2.34286
2.36834
2.3928
2.41621
2.43855
2.45979
2.47992
2.49891
2.51675
2.53345
2.54899
2.56336
2.57658
2.58862
2.59949
2.60916
2.61763
2.62486
2.63082
2.63547
2.63873
2.63992
2.63909
2.63622
2.63125
2.6241
2.61465
2.6028
2.5884
2.57131
2.55137
2.5284
2.50222
2.47268
2.43969
2.40317
2.36305
2.31939
2.27235
2.22213
2.16905
2.11353
2.05606
1.99726
1.93791
1.87892
1.82386
1.77763
1.74295
1.72112
1.71266
1.71736
1.73419
1.76063
1.79242
1.82388
1.84877
1.86157
1.85862
1.8387
1.80296
1.75425
1.69644
1.63376
1.57025
1.50989
0.0132124
0.0235437
0.0310376
0.0372238
0.0427674
0.047976
0.0530249
0.058028
0.063066
0.0681983
0.0734691
0.0789116
0.0845506
0.0904044
0.0964872
0.102809
0.109379
0.116202
0.123284
0.130629
0.138239
0.146116
0.154263
0.162682
0.171373
0.180337
0.189577
0.199095
0.208891
0.218969
0.229331
0.239982
0.250925
0.262164
0.273704
0.285549
0.297706
0.310179
0.322974
0.336095
0.349549
0.36334
0.377475
0.39196
0.406803
0.422014
0.437604
0.453585
0.469972
0.486778
0.50402
0.521713
0.539872
0.558514
0.577657
0.597319
0.617517
0.638271
0.659599
0.681522
0.704058
0.727228
0.75105
0.775545
0.800731
0.826627
0.853252
0.880622
0.908756
0.937668
0.967372
0.997883
1.02921
1.06137
1.09436
1.12818
1.16286
1.19837
1.23472
1.27191
1.30991
1.34873
1.38833
1.4287
1.4698
1.51161
1.55409
1.59719
1.64086
1.68505
1.72969
1.77472
1.82007
1.86566
1.91141
1.95723
2.00304
2.04876
2.09428
2.13951
2.18438
2.22879
2.27267
2.31592
2.35849
2.4003
2.44128
2.48138
2.52053
2.55868
2.59577
2.63175
2.66656
2.70013
2.73241
2.76333
2.79285
2.8209
2.84742
2.87237
2.89569
2.91734
2.93729
2.9555
2.97195
2.98662
2.99949
3.01052
3.0197
3.027
3.03238
3.0358
3.03719
3.03649
3.03348
3.0276
3.01898
3.00759
2.9934
2.97633
2.95631
2.93321
2.90691
2.87728
2.84416
2.80739
2.76677
2.72213
2.6734
2.62053
2.56345
2.50218
2.43691
2.36787
2.29527
2.21961
2.14126
2.06124
1.97986
1.90246
1.8327
1.77337
1.72647
1.69379
1.67689
1.67689
1.69384
1.72591
1.76877
1.81575
1.85881
1.89029
1.90455
1.89908
1.87449
1.83379
1.7813
1.72179
1.65959
1.59846
0.015344
0.0274001
0.0358637
0.0427708
0.0489203
0.0546636
0.0601971
0.0656476
0.0711046
0.0766345
0.0822881
0.0881045
0.0941141
0.100341
0.106805
0.11352
0.1205
0.127753
0.135289
0.143112
0.151229
0.159642
0.168355
0.177369
0.186688
0.196313
0.206244
0.216486
0.227039
0.237906
0.249091
0.260596
0.272425
0.284582
0.297072
0.3099
0.32307
0.336588
0.35046
0.364691
0.379289
0.394259
0.409611
0.425352
0.441493
0.458043
0.475016
0.492425
0.510285
0.52861
0.547416
0.566722
0.586543
0.6069
0.627811
0.649297
0.671378
0.694076
0.717414
0.741413
0.766097
0.79149
0.817614
0.844494
0.872153
0.900616
0.929904
0.960042
0.991052
1.02295
1.05577
1.08952
1.12422
1.15989
1.19654
1.23419
1.27284
1.3125
1.35317
1.39486
1.43756
1.48127
1.52596
1.57163
1.61825
1.66579
1.71421
1.76347
1.81353
1.86433
1.9158
1.96786
2.02046
2.07348
2.12685
2.18046
2.23421
2.28799
2.34168
2.39516
2.44833
2.50107
2.55325
2.60478
2.65555
2.70545
2.7544
2.80231
2.84908
2.89465
2.93892
2.98182
3.02326
3.06316
3.10142
3.13797
3.1727
3.20554
3.23639
3.26518
3.29181
3.31623
3.33835
3.35814
3.37552
3.39047
3.40292
3.41286
3.42022
3.42496
3.42702
3.42633
3.42282
3.41638
3.40656
3.39305
3.37598
3.35536
3.33117
3.30336
3.27186
3.23656
3.19735
3.15409
3.10666
3.05492
2.99868
2.93772
2.87196
2.80144
2.72612
2.64596
2.56112
2.4721
2.37875
2.2821
2.1819
2.08119
1.98316
1.89109
1.80741
1.73411
1.67326
1.62725
1.59873
1.59028
1.6036
1.63832
1.69088
1.75411
1.81819
1.87277
1.90948
1.92377
1.91522
1.88669
1.84291
1.78916
1.73022
1.66994
0.0171037
0.0307165
0.0399905
0.0475017
0.0541663
0.0603691
0.0663212
0.072158
0.0779751
0.0838441
0.0898206
0.0959488
0.102264
0.108796
0.115567
0.122599
0.129906
0.137502
0.145398
0.153603
0.162123
0.170963
0.180128
0.189621
0.199444
0.209601
0.220093
0.230923
0.242093
0.253606
0.265465
0.277673
0.290234
0.303153
0.316434
0.330081
0.3441
0.358497
0.373279
0.388451
0.404021
0.419998
0.43639
0.453207
0.470459
0.48816
0.506322
0.524959
0.544086
0.56372
0.583877
0.604577
0.625838
0.647682
0.670128
0.693199
0.71692
0.741313
0.766403
0.792217
0.818781
0.846121
0.874265
0.903241
0.933077
0.9638
0.99544
1.02802
1.06158
1.09613
1.13171
1.16834
1.20604
1.24485
1.28477
1.32583
1.36804
1.41142
1.45598
1.50173
1.54866
1.59679
1.64609
1.69656
1.74819
1.80094
1.85479
1.90969
1.96561
2.02248
2.08024
2.13882
2.19812
2.25807
2.31856
2.37946
2.44068
2.50207
2.5635
2.62483
2.68593
2.74663
2.80681
2.86632
2.92502
2.98278
3.03948
3.095
3.14922
3.20205
3.25337
3.30309
3.35109
3.39726
3.44147
3.48361
3.52356
3.5612
3.59641
3.62907
3.65907
3.6863
3.71067
3.73209
3.75049
3.76578
3.77791
3.78681
3.79242
3.79467
3.79348
3.78876
3.78041
3.76832
3.75161
3.73041
3.7048
3.6748
3.64043
3.60163
3.55836
3.51052
3.45799
3.40064
3.33835
3.27103
3.19853
3.12057
3.03706
2.94803
2.85375
2.75408
2.64881
2.53956
2.42503
2.30785
2.1904
2.07511
1.96414
1.85957
1.76309
1.67638
1.60149
1.54105
1.49843
1.47755
1.48212
1.51418
1.57217
1.64955
1.73514
1.81561
1.87903
1.91784
1.92985
1.91738
1.88542
1.83983
1.78598
1.72816
0.0185589
0.0334822
0.0433899
0.051371
0.0584439
0.065018
0.0713132
0.0774695
0.0835855
0.0897358
0.0959795
0.102364
0.108929
0.115706
0.122724
0.130006
0.137569
0.145432
0.153606
0.162102
0.170929
0.180095
0.189603
0.19946
0.209668
0.220232
0.231153
0.242436
0.254083
0.266097
0.278482
0.291241
0.304379
0.3179
0.331808
0.34611
0.36081
0.375916
0.391434
0.407371
0.423736
0.440537
0.457785
0.47549
0.493664
0.512319
0.53147
0.551131
0.571319
0.592051
0.613345
0.63522
0.657699
0.680802
0.704552
0.728975
0.754094
0.779938
0.806533
0.833907
0.862091
0.891113
0.921005
0.951798
0.983524
1.01622
1.0499
1.08462
1.1204
1.15728
1.19528
1.23444
1.27479
1.31635
1.35915
1.40323
1.44859
1.49526
1.54327
1.59261
1.6433
1.69535
1.74875
1.8035
1.85959
1.91699
1.97568
2.03563
2.09679
2.15912
2.22253
2.28697
2.35234
2.41855
2.48549
2.55304
2.62107
2.68943
2.75797
2.82654
2.89495
2.96305
3.03066
3.0976
3.16372
3.22884
3.29281
3.35549
3.41674
3.47643
3.53444
3.59063
3.64487
3.69702
3.74694
3.79446
3.83944
3.88173
3.92116
3.9576
3.99089
4.0209
4.0475
4.07058
4.09002
4.10574
4.11764
4.12564
4.12966
4.12963
4.12544
4.11696
4.10408
4.08656
4.0634
4.03484
4.00098
3.96186
3.9175
3.86789
3.81297
3.75266
3.68683
3.61532
3.53799
3.45475
3.36563
3.27037
3.16873
3.06048
2.94682
2.82761
2.70114
2.57229
2.44075
2.30899
2.17884
2.05229
1.93083
1.81589
1.70875
1.61075
1.52361
1.44969
1.39242
1.35642
1.34723
1.36988
1.42629
1.51238
1.61695
1.72388
1.81689
1.88427
1.92103
1.92835
1.91122
1.87614
1.82921
1.7754
0.0197181
0.0356931
0.0460633
0.0543773
0.0617444
0.0685926
0.0751465
0.0815477
0.0878956
0.0942662
0.10072
0.107306
0.114066
0.121034
0.128241
0.135712
0.143467
0.151524
0.159898
0.168602
0.177646
0.187038
0.196786
0.206895
0.21737
0.228216
0.239438
0.251038
0.263021
0.275391
0.288151
0.301307
0.314862
0.328822
0.343193
0.357979
0.373189
0.388827
0.404903
0.421424
0.438399
0.455839
0.473752
0.492152
0.511051
0.530462
0.5504
0.570881
0.591921
0.613541
0.635758
0.658594
0.682071
0.706212
0.731043
0.75659
0.782879
0.80994
0.837803
0.866498
0.896058
0.926515
0.957903
0.990257
1.02361
1.058
1.09347
1.13004
1.16776
1.20666
1.24678
1.28815
1.33081
1.37479
1.42013
1.46685
1.51498
1.56455
1.61559
1.6681
1.7221
1.77761
1.83462
1.89314
1.95316
2.01466
2.07763
2.14203
2.20782
2.27495
2.34337
2.41299
2.48373
2.5555
2.62817
2.70163
2.77574
2.85033
2.92524
3.00029
3.07529
3.15005
3.22437
3.29805
3.37089
3.4427
3.51329
3.58249
3.65014
3.7161
3.78022
3.84234
3.90231
3.95996
4.01512
4.06759
4.11721
4.16379
4.20714
4.24708
4.28344
4.31605
4.34476
4.36941
4.38988
4.40604
4.41779
4.42503
4.42767
4.4256
4.41872
4.4069
4.38997
4.36745
4.33839
4.30303
4.26145
4.2137
4.15981
4.09977
4.03353
3.96102
3.88209
3.79657
3.7042
3.60473
3.49869
3.38592
3.26608
3.13776
3.00461
2.86677
2.72427
2.58021
2.4356
2.29245
2.15228
2.01665
1.88677
1.76377
1.64862
1.54231
1.44604
1.36157
1.29164
1.24061
1.21474
1.22171
1.26793
1.35411
1.47148
1.60239
1.72591
1.82486
1.89012
1.9208
1.92152
1.89933
1.8612
1.81298
0.0205878
0.0373639
0.0480368
0.0565513
0.0640978
0.071119
0.0778416
0.0844069
0.0909139
0.0974381
0.10404
0.110769
0.117668
0.124771
0.13211
0.139709
0.14759
0.155772
0.164271
0.173101
0.182272
0.191796
0.20168
0.211932
0.222559
0.233565
0.244958
0.256741
0.26892
0.281499
0.294484
0.307881
0.321694
0.335929
0.350594
0.365693
0.381236
0.397229
0.413682
0.430602
0.448001
0.465888
0.484276
0.503176
0.522603
0.542571
0.563095
0.584193
0.605882
0.628183
0.651116
0.674704
0.69897
0.72394
0.74964
0.776098
0.803344
0.831408
0.860323
0.890122
0.92084
0.952512
0.985175
1.01886
1.05362
1.08948
1.12649
1.16468
1.20409
1.24477
1.28674
1.33007
1.37477
1.42089
1.46846
1.51753
1.56811
1.62025
1.67396
1.72927
1.7862
1.84477
1.90497
1.96681
2.0303
2.09541
2.16213
2.23043
2.30028
2.37163
2.44442
2.51857
2.59402
2.67064
2.74834
2.82697
2.9064
2.98646
3.06697
3.14774
3.22854
3.30917
3.38941
3.46903
3.5478
3.62552
3.70196
3.77692
3.85024
3.92173
3.99125
4.05861
4.12363
4.18612
4.24588
4.30271
4.35641
4.40675
4.45355
4.49657
4.53564
4.57054
4.6011
4.62715
4.64853
4.66509
4.67671
4.68328
4.68468
4.68081
4.67154
4.65675
4.63628
4.6092
4.57479
4.53323
4.48453
4.42867
4.36571
4.29565
4.21842
4.13393
4.04207
3.94264
3.83528
3.71898
3.59574
3.46535
3.32783
3.18324
3.03392
2.88084
2.72518
2.56899
2.41377
2.2612
2.11274
1.96973
1.8333
1.7044
1.5838
1.47218
1.37028
1.27912
1.20049
1.13756
1.09588
1.08399
1.11224
1.18795
1.30831
1.45699
1.60914
1.74105
1.83785
1.89523
1.9168
1.90992
1.88253
1.84152
0.0211792
0.0385216
0.049353
0.0579456
0.0655614
0.072655
0.0794544
0.0860995
0.0926882
0.0992948
0.105979
0.112789
0.119766
0.126944
0.134353
0.142017
0.149958
0.158194
0.166742
0.175615
0.184827
0.194388
0.204309
0.214597
0.22526
0.236307
0.247744
0.259577
0.271813
0.284459
0.297519
0.311002
0.324913
0.339261
0.354051
0.369293
0.384995
0.401165
0.417813
0.43495
0.452587
0.470735
0.489407
0.508617
0.528379
0.54871
0.569627
0.591146
0.61329
0.636077
0.659532
0.683678
0.70854
0.734145
0.760523
0.787703
0.815716
0.844597
0.874379
0.905099
0.936793
0.969499
1.00326
1.03811
1.07409
1.11124
1.1496
1.18923
1.23015
1.27242
1.31607
1.36114
1.40769
1.45574
1.50533
1.55651
1.60931
1.66376
1.71988
1.77772
1.83728
1.89859
1.96165
2.02646
2.09303
2.16133
2.23137
2.30311
2.37652
2.45156
2.52817
2.60629
2.68582
2.76666
2.84871
2.93183
3.01586
3.10065
3.186
3.27172
3.35755
3.44326
3.5286
3.61335
3.69725
3.78005
3.86152
3.94144
4.01961
4.09585
4.16996
4.24177
4.31105
4.37762
4.44125
4.50173
4.55882
4.61229
4.66193
4.70749
4.74876
4.78553
4.81758
4.84472
4.86677
4.88357
4.89497
4.90084
4.90106
4.8955
4.88401
4.86652
4.84276
4.81142
4.77206
4.72472
4.66932
4.60568
4.53387
4.45398
4.36586
4.26943
4.16458
4.05123
3.92922
3.7984
3.65982
3.51389
3.36121
3.20266
3.03988
2.87429
2.70742
2.54103
2.37677
2.21624
2.0609
1.91204
1.77074
1.63784
1.51398
1.39962
1.29513
1.20097
1.118
1.04804
0.994884
0.965796
0.972412
1.02811
1.13921
1.29548
1.4708
1.63473
1.76486
1.85182
1.89709
1.90799
1.89335
1.86117
0.0215074
0.0392005
0.0500641
0.0586266
0.06621
0.0732803
0.0800658
0.0867057
0.0932964
0.0999108
0.106607
0.113431
0.120422
0.127611
0.135025
0.142688
0.15062
0.158837
0.167357
0.176193
0.185357
0.194863
0.20472
0.21494
0.22553
0.2365
0.247858
0.259613
0.271771
0.284342
0.297333
0.310752
0.324607
0.338908
0.353662
0.36888
0.384572
0.400747
0.417418
0.434595
0.452292
0.470522
0.489298
0.508638
0.528556
0.54907
0.570199
0.591962
0.614383
0.637483
0.661286
0.68582
0.711111
0.73719
0.764085
0.791831
0.820461
0.850011
0.880518
0.912021
0.944558
0.978172
1.0129
1.04879
1.08588
1.12422
1.16384
1.20479
1.24712
1.29087
1.33609
1.38281
1.43108
1.48095
1.53244
1.58561
1.64048
1.69709
1.75547
1.81564
1.87764
1.94148
2.00717
2.0747
2.14406
2.21525
2.28825
2.36306
2.43963
2.51792
2.59788
2.67944
2.76251
2.847
2.93279
3.01975
3.10772
3.19654
3.28601
3.37598
3.46609
3.55609
3.64575
3.73482
3.82302
3.91009
3.99578
4.07983
4.16203
4.24217
4.32006
4.39548
4.46821
4.53805
4.60475
4.66808
4.7278
4.78368
4.83546
4.8829
4.92578
4.96384
4.99688
5.02467
5.04701
5.06373
5.07466
5.07964
5.07854
5.07117
5.05741
5.03719
5.01002
4.97437
4.93007
4.87702
4.81506
4.74405
4.66397
4.57481
4.47647
4.36889
4.25205
4.12599
3.99087
3.84698
3.69502
3.53575
3.37014
3.1994
3.02504
2.84867
2.672
2.4968
2.32479
2.15762
1.99678
1.84354
1.69895
1.56377
1.43853
1.32351
1.21884
1.12458
1.04092
0.968586
0.909596
0.868781
0.855999
0.887012
0.977382
1.12809
1.3171
1.50892
1.67233
1.79082
1.86232
1.89337
1.89348
1.87179
0.0215893
0.0394374
0.0502263
0.0586667
0.0661276
0.0730858
0.0797709
0.0863221
0.0928355
0.099383
0.10602
0.11279
0.119728
0.126861
0.134215
0.141808
0.149659
0.157784
0.166197
0.174913
0.183944
0.193304
0.203002
0.213051
0.223461
0.234242
0.245404
0.256957
0.268911
0.281275
0.294058
0.307272
0.320926
0.335031
0.349598
0.364638
0.380162
0.396184
0.412717
0.429774
0.44737
0.46552
0.484241
0.503549
0.523465
0.544006
0.565195
0.587053
0.609605
0.632876
0.656892
0.681683
0.707279
0.733712
0.761014
0.789223
0.818373
0.848505
0.879657
0.911872
0.945192
0.97966
1.01532
1.05222
1.0904
1.1299
1.17076
1.21304
1.25677
1.30201
1.34879
1.39717
1.44717
1.49885
1.55224
1.60738
1.6643
1.72303
1.7836
1.84605
1.91039
1.97665
2.04488
2.11497
2.18695
2.2608
2.33652
2.4141
2.4935
2.57467
2.65757
2.74213
2.82827
2.91588
3.00485
3.09504
3.18631
3.27847
3.37133
3.46467
3.55821
3.6517
3.74487
3.83744
3.92913
4.01965
4.10873
4.19611
4.28153
4.36477
4.44563
4.52387
4.59926
4.67158
4.74057
4.806
4.86762
4.92516
4.97839
5.02705
5.07088
5.10965
5.14312
5.17106
5.19324
5.20948
5.21957
5.22336
5.22065
5.21126
5.19506
5.17194
5.14098
5.10101
5.0518
4.99315
4.92487
4.84681
4.75891
4.66109
4.5533
4.43552
4.30782
4.17041
4.02363
3.86796
3.70415
3.53313
3.35609
3.17445
2.98979
2.8039
2.61862
2.43584
2.25737
2.08494
1.92004
1.76396
1.61767
1.48188
1.35698
1.24311
1.14018
1.04798
0.966278
0.895073
0.835082
0.78886
0.763051
0.771509
0.834687
0.966711
1.15658
1.36843
1.56242
1.71296
1.81253
1.86583
1.88263
1.87308
0.0214449
0.0392687
0.049894
0.0581373
0.0653984
0.0721643
0.0786683
0.0850521
0.091413
0.0978222
0.104332
0.110982
0.117801
0.124814
0.132039
0.139494
0.147193
0.155151
0.163381
0.171896
0.180709
0.189833
0.19928
0.209062
0.219191
0.229679
0.240537
0.251775
0.263407
0.275443
0.287897
0.300779
0.314102
0.32788
0.342125
0.356852
0.372074
0.387806
0.404065
0.420867
0.438228
0.456168
0.474704
0.493858
0.513651
0.534104
0.555243
0.577093
0.599681
0.623035
0.647186
0.672165
0.698007
0.724747
0.752422
0.78107
0.810731
0.841447
0.873261
0.906217
0.940362
0.975742
1.01241
1.05042
1.08979
1.13057
1.1728
1.21653
1.26181
1.30868
1.35718
1.40736
1.45924
1.51288
1.5683
1.62554
1.68462
1.74557
1.80842
1.87318
1.93987
2.00851
2.07909
2.15159
2.226
2.3023
2.38049
2.46055
2.54243
2.6261
2.71151
2.79858
2.88725
2.97741
3.06894
3.16172
3.25559
3.35037
3.44586
3.54184
3.63805
3.73423
3.83009
3.92534
4.0197
4.11286
4.20453
4.29442
4.38228
4.46786
4.55092
4.63122
4.70853
4.7826
4.85316
4.91998
4.98279
5.04133
5.09534
5.14457
5.18876
5.22765
5.26099
5.28856
5.3101
5.32541
5.33427
5.33649
5.33183
5.32009
5.30117
5.27477
5.23967
5.19518
5.14094
5.0767
5.00222
4.91734
4.82194
4.71594
4.59931
4.4721
4.33444
4.18664
4.02917
3.86267
3.68799
3.50624
3.31878
3.12721
2.9333
2.739
2.54631
2.35726
2.17377
1.99761
1.8303
1.67307
1.52683
1.39216
1.26931
1.15825
1.05872
0.970282
0.892422
0.824695
0.767019
0.720374
0.688477
0.68118
0.718022
0.822465
0.999359
1.21996
1.43867
1.61974
1.74813
1.82529
1.86047
1.86461
0.0210989
0.03873
0.0491149
0.0571
0.0640966
0.0706001
0.0768507
0.0829968
0.0891395
0.0953486
0.101672
0.108142
0.114782
0.121612
0.128644
0.135894
0.143371
0.151089
0.159059
0.167295
0.175808
0.184612
0.193721
0.203147
0.212904
0.223006
0.233466
0.244293
0.255503
0.267111
0.27913
0.291577
0.304465
0.317811
0.33163
0.34594
0.360758
0.376102
0.391991
0.408445
0.425484
0.443131
0.461408
0.480339
0.49995
0.520267
0.541319
0.563135
0.585747
0.609187
0.63349
0.658693
0.684834
0.711953
0.740091
0.769289
0.799593
0.831047
0.863697
0.89759
0.932773
0.969293
1.0072
1.04654
1.08735
1.12967
1.17355
1.21903
1.26615
1.31495
1.36546
1.41772
1.47177
1.52762
1.58532
1.64488
1.70633
1.76968
1.83493
1.90211
1.97121
2.04224
2.11518
2.19001
2.26672
2.34529
2.4257
2.50792
2.59193
2.67767
2.7651
2.85416
2.94477
3.03683
3.13024
3.22486
3.32056
3.41715
3.51445
3.61222
3.71022
3.80819
3.90585
4.0029
4.09903
4.19395
4.28734
4.3789
4.46837
4.55548
4.63997
4.72159
4.80007
4.87517
4.94661
5.01413
5.07747
5.13635
5.19052
5.23971
5.28366
5.3221
5.35477
5.38144
5.40185
5.41575
5.42293
5.42313
5.4161
5.40163
5.37956
5.34925
5.3096
5.26019
5.20063
5.13059
5.04981
4.95809
4.8553
4.74132
4.61616
4.47989
4.33271
4.17503
4.0074
3.83061
3.64567
3.45387
3.25676
3.05615
2.85403
2.65252
2.45382
2.26007
2.07327
1.89522
1.7274
1.57096
1.4267
1.29502
1.176
1.06942
0.974832
0.891602
0.819005
0.756321
0.703008
0.659112
0.626348
0.610768
0.62757
0.702568
0.85533
1.07157
1.30602
1.51359
1.67006
1.77185
1.82675
1.84599
0.0205828
0.0378542
0.0479233
0.0555974
0.0622771
0.0684601
0.0743977
0.080252
0.0861292
0.0920945