/*--------------------------------*- C++ -*----------------------------------*\
| =========                 |                                                 |
| \\      /  F ield         | OpenFOAM: The Open Source CFD Toolbox           |
|  \\    /   O peration     | Version:  1.4.2                                 |
|   \\  /    A nd           | Web:      http://www.openfoam.org               |
|    \\/     M anipulation  |                                                 |
\*---------------------------------------------------------------------------*/
FoamFile
{
    version     2.0;
    format      ascii;
    class       volScalarField;
    object      p;
    location    "600";
}
// * * * * * * * * * * * * * * * * * * * * * * * * * * * * * * * * * * * * * //

dimensions      [0 2 -2 0 0 0 0];

internalField   nonuniform List<scalar> 
12225
(
-3.89614
-4.73365
-4.98283
-5.08021
-5.18564
-5.28909
-5.38031
-5.46315
-5.54141
-5.61692
-5.69065
-5.76375
-5.83749
-5.91354
-5.99433
-6.08389
-6.18901
-6.33612
-4.06248
-4.74081
-4.98082
-5.0818
-5.18626
-5.288
-5.37803
-5.45995
-5.53732
-5.61197
-5.68486
-5.75714
-5.83003
-5.90517
-5.98484
-6.07268
-6.17485
-6.3073
-4.24152
-4.73676
-4.97004
-5.07949
-5.18411
-5.28443
-5.37377
-5.45535
-5.53238
-5.60663
-5.67906
-5.75075
-5.82285
-5.89679
-5.97439
-6.05807
-6.15006
-6.25212
-4.39867
-4.75433
-4.97293
-5.08676
-5.18982
-5.28765
-5.37565
-5.45647
-5.53288
-5.60652
-5.6783
-5.74922
-5.82025
-5.89251
-5.96723
-6.04554
-6.12715
-6.20917
-4.5285
-4.78572
-4.98354
-5.09793
-5.19861
-5.29356
-5.37976
-5.45936
-5.53473
-5.60734
-5.67805
-5.74772
-5.81714
-5.88706
-5.95811
-6.03041
-6.10237
-6.16975
-4.64156
-4.82546
-4.9991
-5.11096
-5.20851
-5.30036
-5.38459
-5.46283
-5.53702
-5.60845
-5.67789
-5.74604
-5.81349
-5.88066
-5.94769
-6.01404
-6.07765
-6.13458
-4.74179
-4.871
-5.01939
-5.12587
-5.21936
-5.3076
-5.3894
-5.46593
-5.53869
-5.60873
-5.67667
-5.74306
-5.80824
-5.87239
-5.93526
-5.996
-6.05262
-6.10199
-4.81792
-4.91282
-5.04037
-5.1403
-5.22956
-5.31425
-5.39354
-5.46821
-5.53942
-5.60796
-5.67434
-5.73895
-5.80198
-5.8634
-5.92282
-5.97929
-6.0311
-6.07579
-4.87891
-4.95087
-5.06097
-5.1545
-5.23957
-5.32082
-5.39761
-5.47036
-5.53991
-5.60688
-5.67165
-5.73448
-5.79544
-5.85437
-5.9108
-5.96384
-6.01207
-6.05349
-4.93896
-4.99241
-5.08516
-5.17123
-5.25135
-5.3286
-5.40241
-5.47282
-5.54034
-5.60539
-5.66821
-5.72892
-5.78749
-5.84369
-5.89702
-5.94669
-5.99162
-6.03025
-4.99725
-5.03647
-5.11284
-5.19048
-5.26494
-5.33762
-5.40793
-5.47555
-5.54064
-5.60339
-5.66391
-5.7222
-5.77813
-5.83142
-5.88162
-5.92807
-5.97
-6.00628
-5.05291
-5.08169
-5.14344
-5.21203
-5.28026
-5.34789
-5.41418
-5.47852
-5.54075
-5.60082
-5.6587
-5.71427
-5.76735
-5.81764
-5.86474
-5.90819
-5.94744
-5.98173
-5.10514
-5.12651
-5.17588
-5.23535
-5.29697
-5.35919
-5.42103
-5.48165
-5.54059
-5.59762
-5.65255
-5.70516
-5.75524
-5.8025
-5.84664
-5.88731
-5.92419
-5.95678
-5.15293
-5.16917
-5.20857
-5.25944
-5.31438
-5.37103
-5.42814
-5.48469
-5.54003
-5.59372
-5.64545
-5.69495
-5.74197
-5.78626
-5.82758
-5.86574
-5.90052
-5.93163
-5.19488
-5.20761
-5.23938
-5.2827
-5.33131
-5.38252
-5.43485
-5.4872
-5.53875
-5.58894
-5.63736
-5.68371
-5.72771
-5.76916
-5.80789
-5.84378
-5.87671
-5.90651
-5.22896
-5.23937
-5.26565
-5.30288
-5.34598
-5.39225
-5.44012
-5.48842
-5.53626
-5.583
-5.62819
-5.67149
-5.71265
-5.75148
-5.78787
-5.82174
-5.85304
-5.88168
-5.25219
-5.26117
-5.28393
-5.31691
-5.35584
-5.39818
-5.44234
-5.48715
-5.53171
-5.57537
-5.61765
-5.65822
-5.69686
-5.7334
-5.76777
-5.79992
-5.82982
-5.85744
-5.25949
-5.26797
-5.28944
-5.32064
-5.35755
-5.39775
-5.43969
-5.48226
-5.5246
-5.56608
-5.60625
-5.64481
-5.68157
-5.7164
-5.74924
-5.78007
-5.80888
-5.83566
-5.25022
-5.25915
-5.28164
-5.31369
-5.35096
-5.39106
-5.43256
-5.47442
-5.51584
-5.55626
-5.59532
-5.63274
-5.66839
-5.70217
-5.73405
-5.76404
-5.79214
-5.81834
-5.22835
-5.23874
-5.26439
-5.29951
-5.33901
-5.38056
-5.42294
-5.46522
-5.5067
-5.54692
-5.58559
-5.62253
-5.65764
-5.69087
-5.72221
-5.7517
-5.77935
-5.80518
-5.1964
-5.2096
-5.24083
-5.28102
-5.3241
-5.36817
-5.41231
-5.45573
-5.49786
-5.53839
-5.57713
-5.61398
-5.6489
-5.68187
-5.71293
-5.74213
-5.7695
-5.79506
-5.15557
-5.17371
-5.21349
-5.26047
-5.30805
-5.3553
-5.40171
-5.44665
-5.48975
-5.53086
-5.56992
-5.6069
-5.64182
-5.67471
-5.70564
-5.73467
-5.76185
-5.78719
-5.10608
-5.13265
-5.18462
-5.23971
-5.29218
-5.3429
-5.39181
-5.43841
-5.48258
-5.52437
-5.56384
-5.60106
-5.63609
-5.66903
-5.69992
-5.72887
-5.75591
-5.78105
-5.04733
-5.08804
-5.15636
-5.2201
-5.27734
-5.33158
-5.38297
-5.43118
-5.47638
-5.51883
-5.55874
-5.59624
-5.63144
-5.66446
-5.69539
-5.7243
-5.75124
-5.77618
-4.97806
-5.04175
-5.13065
-5.20257
-5.26406
-5.32164
-5.37534
-5.42495
-5.47103
-5.51407
-5.55437
-5.59213
-5.62751
-5.66066
-5.69167
-5.72062
-5.74752
-5.77228
-4.89648
-4.99608
-5.10896
-5.18746
-5.25235
-5.31297
-5.36868
-5.41945
-5.46624
-5.50975
-5.55038
-5.58837
-5.62394
-5.65725
-5.68843
-5.71754
-5.74453
-5.76921
-4.79908
-4.95465
-5.09244
-5.17466
-5.24211
-5.30551
-5.36296
-5.41469
-5.4621
-5.50608
-5.54706
-5.58535
-5.62119
-5.65478
-5.68627
-5.71573
-5.74309
-5.76807
-4.67422
-4.92326
-5.08366
-5.16499
-5.23398
-5.29987
-5.35882
-5.41133
-5.45924
-5.5036
-5.54488
-5.5834
-5.61945
-5.65326
-5.68502
-5.71488
-5.74281
-5.76858
-4.51324
-4.91246
-5.09077
-5.16603
-5.23465
-5.30193
-5.36156
-5.41424
-5.46222
-5.50664
-5.54795
-5.58649
-5.62257
-5.65644
-5.68836
-5.7186
-5.74734
-5.77507
-4.35034
-4.89591
-5.09076
-5.16334
-5.23252
-5.30116
-5.36155
-5.41463
-5.46291
-5.50759
-5.54916
-5.58796
-5.62428
-5.65842
-5.69064
-5.72132
-5.75099
-5.78366
-6.42448
-6.42425
-6.42438
-6.42487
-6.42563
-6.42657
-6.42763
-6.4288
-6.43006
-6.43143
-6.43288
-6.43444
-6.43617
-6.43815
-6.44036
-6.44282
-6.44556
-6.44859
-6.45195
-6.45565
-6.45971
-6.46412
-6.46891
-6.47408
-6.47962
-6.48556
-6.49188
-6.49858
-6.50568
-6.51316
-6.52103
-6.52929
-6.53794
-6.54698
-6.5564
-6.56622
-6.57643
-6.58703
-6.59803
-6.60943
-6.62123
-6.63341
-6.646
-6.65909
-6.67284
-6.6873
-6.70222
-6.71748
-6.73315
-6.74924
-6.76578
-6.78279
-6.80026
-6.81821
-6.83665
-6.85558
-6.875
-6.89491
-6.91531
-6.9362
-6.95756
-6.97941
-7.00171
-7.02447
-7.04768
-7.07132
-7.09537
-7.11982
-7.14465
-7.16983
-7.19535
-7.22116
-7.24724
-7.27357
-7.30011
-7.32683
-7.35369
-7.38068
-7.40776
-7.43489
-7.46204
-7.48919
-7.5163
-7.54336
-7.57034
-7.59722
-7.62402
-7.65071
-7.6773
-7.7038
-7.73022
-7.75657
-7.7829
-7.80925
-7.83567
-7.86224
-7.88904
-7.91617
-7.94373
-7.97185
-8.00065
-8.03026
-8.06085
-8.09256
-8.12557
-8.16002
-8.19605
-8.23379
-8.27332
-8.31471
-8.35794
-8.40297
-8.44969
-8.49792
-8.54734
-8.59756
-8.64804
-8.69808
-8.74688
-8.79342
-8.83656
-8.87492
-8.9069
-8.93069
-8.94419
-8.94509
-8.93084
-8.89861
-8.84527
-8.76739
-8.66146
-8.52401
-8.35144
-8.13962
-7.88383
-7.57948
-7.22275
-6.81045
-6.33967
-5.80798
-5.2135
-4.55495
-3.83186
-3.04478
-2.19532
-1.2863
-0.321903
0.692329
1.74949
2.84151
3.95935
5.093
6.23156
7.36338
8.47676
9.56089
10.6063
11.6044
12.546
13.4216
14.2234
14.9494
15.6047
16.2008
16.7384
17.206
17.601
17.9287
18.1943
18.4025
18.5578
18.6654
18.7309
18.7614
18.7652
18.752
18.734
18.7265
18.7618
18.8603
-6.42435
-6.4242
-6.4243
-6.42472
-6.4253
-6.42591
-6.42656
-6.42724
-6.42797
-6.42878
-6.42969
-6.43071
-6.43188
-6.43326
-6.43486
-6.43672
-6.43886
-6.44131
-6.44408
-6.44718
-6.45064
-6.45446
-6.45865
-6.46322
-6.46816
-6.47349
-6.4792
-6.4853
-6.49178
-6.49866
-6.50591
-6.51356
-6.5216
-6.53004
-6.53888
-6.54813
-6.55779
-6.56788
-6.5784
-6.58938
-6.6008
-6.61268
-6.625
-6.63773
-6.65077
-6.66406
-6.67781
-6.69218
-6.70706
-6.7224
-6.73819
-6.75444
-6.77116
-6.78835
-6.80601
-6.82416
-6.84279
-6.8619
-6.8815
-6.90158
-6.92213
-6.94316
-6.96465
-6.98659
-7.00897
-7.03178
-7.055
-7.07862
-7.10261
-7.12696
-7.15163
-7.17661
-7.20186
-7.22736
-7.25307
-7.27896
-7.30501
-7.33118
-7.35744
-7.38375
-7.41009
-7.43643
-7.46275
-7.48901
-7.51521
-7.54133
-7.56735
-7.59329
-7.61912
-7.64486
-7.67053
-7.69613
-7.72172
-7.74732
-7.773
-7.79883
-7.82488
-7.85126
-7.87807
-7.90543
-7.93347
-7.96232
-7.99214
-8.0231
-8.05535
-8.08907
-8.1244
-8.16148
-8.20041
-8.24127
-8.28407
-8.32881
-8.37538
-8.42362
-8.47325
-8.52388
-8.57502
-8.62601
-8.67605
-8.7242
-8.76931
-8.81005
-8.84487
-8.87195
-8.88927
-8.89452
-8.88521
-8.85855
-8.81143
-8.74042
-8.642
-8.5128
-8.34938
-8.14754
-7.90215
-7.60845
-7.26285
-6.86221
-6.40359
-5.88448
-5.30291
-4.65757
-3.94784
-3.17411
-2.33783
-1.44169
-0.489694
0.512847
1.55922
2.64148
3.75066
4.87682
6.00917
7.13624
8.24664
9.32973
10.3758
11.3755
12.3188
13.196
14.0011
14.7343
15.4008
16.003
16.538
17.002
17.3965
17.7263
17.9964
18.2115
18.3761
18.4951
18.574
18.6192
18.6387
18.6418
18.6403
18.648
18.6952
18.7678
-6.42246
-6.42266
-6.42305
-6.4236
-6.42416
-6.42469
-6.42518
-6.42563
-6.42609
-6.4266
-6.4272
-6.42793
-6.42881
-6.4299
-6.4312
-6.43276
-6.43458
-6.4367
-6.43912
-6.44186
-6.44494
-6.44836
-6.45213
-6.45627
-6.46077
-6.46565
-6.4709
-6.47652
-6.48253
-6.48892
-6.49569
-6.50285
-6.5104
-6.51835
-6.52669
-6.53544
-6.5446
-6.55417
-6.56416
-6.57458
-6.58543
-6.59673
-6.60846
-6.62065
-6.63326
-6.64625
-6.65967
-6.67356
-6.68791
-6.7027
-6.71794
-6.73364
-6.7498
-6.76643
-6.78354
-6.80112
-6.81918
-6.83773
-6.85676
-6.87627
-6.89624
-6.91669
-6.93759
-6.95894
-6.98074
-7.00295
-7.02558
-7.0486
-7.072
-7.09575
-7.11983
-7.14421
-7.16887
-7.19378
-7.2189
-7.24421
-7.26967
-7.29526
-7.32094
-7.34668
-7.37246
-7.39824
-7.424
-7.44972
-7.47539
-7.50098
-7.52649
-7.55192
-7.57725
-7.6025
-7.62768
-7.65281
-7.67793
-7.70307
-7.72829
-7.75365
-7.77925
-7.80517
-7.83153
-7.85844
-7.88604
-7.91446
-7.94387
-7.97443
-8.00632
-8.0397
-8.07473
-8.11158
-8.15035
-8.19114
-8.234
-8.27891
-8.32582
-8.37455
-8.42486
-8.47638
-8.52863
-8.58098
-8.63267
-8.68275
-8.73011
-8.77343
-8.81119
-8.84161
-8.86265
-8.87206
-8.86734
-8.84576
-8.8042
-8.73919
-8.64724
-8.52506
-8.36937
-8.17579
-7.93871
-7.65345
-7.3167
-6.92528
-6.47626
-5.96705
-5.39563
-4.7606
-4.0613
-3.29795
-2.47187
-1.58565
-0.643186
0.35033
1.38837
2.46301
3.5653
4.68526
5.8121
6.93448
8.0412
9.12152
10.1651
11.1611
12.0985
12.9689
13.7702
14.5071
15.1796
15.7843
16.3195
16.7844
17.1813
17.515
17.7906
18.0131
18.1873
18.3179
18.4103
18.4705
18.5058
18.5249
18.5384
18.557
18.6053
18.6418
-6.41901
-6.41973
-6.42066
-6.42151
-6.42222
-6.42281
-6.42329
-6.4237
-6.42411
-6.42454
-6.42506
-6.42569
-6.42648
-6.42745
-6.42864
-6.43007
-6.43177
-6.43374
-6.43601
-6.43859
-6.4415
-6.44474
-6.44832
-6.45225
-6.45655
-6.4612
-6.46623
-6.47163
-6.4774
-6.48355
-6.49009
-6.49701
-6.50433
-6.51203
-6.52014
-6.52864
-6.53755
-6.54686
-6.55659
-6.56673
-6.57728
-6.58824
-6.59963
-6.61144
-6.62369
-6.63638
-6.64951
-6.66311
-6.67717
-6.69167
-6.70664
-6.72206
-6.73794
-6.7543
-6.77114
-6.78845
-6.80625
-6.82452
-6.84328
-6.86252
-6.88223
-6.9024
-6.92304
-6.94412
-6.96564
-6.98758
-7.00993
-7.03267
-7.05579
-7.07926
-7.10306
-7.12716
-7.15154
-7.17616
-7.201
-7.22603
-7.25121
-7.27652
-7.30191
-7.32737
-7.35286
-7.37836
-7.40384
-7.42929
-7.45468
-7.48
-7.50525
-7.5304
-7.55546
-7.58044
-7.60535
-7.63021
-7.65506
-7.67993
-7.70487
-7.72997
-7.75529
-7.78093
-7.80701
-7.83364
-7.86097
-7.88914
-7.91831
-7.94867
-7.98039
-8.01365
-8.04862
-8.08548
-8.12437
-8.16539
-8.20862
-8.25406
-8.30165
-8.35126
-8.40264
-8.45545
-8.50923
-8.56337
-8.6171
-8.66952
-8.7195
-8.76576
-8.80676
-8.84076
-8.86573
-8.87941
-8.87931
-8.86269
-8.82643
-8.76704
-8.68099
-8.5651
-8.41608
-8.22913
-7.99838
-7.71947
-7.38924
-7.00449
-6.56226
-6.0599
-5.49531
-4.86701
-4.17429
-3.41725
-2.59708
-1.71628
-0.778726
0.210446
1.24483
2.31652
3.41641
4.53456
5.6601
6.78166
7.88799
8.96764
10.0093
11.0014
11.9337
12.8015
13.6068
14.3495
15.0252
15.6315
16.1673
16.6325
17.0301
17.3649
17.6425
17.8683
18.0473
18.1844
18.2849
18.3543
18.3995
18.428
18.4488
18.4689
18.507
18.5109
-6.41455
-6.41584
-6.41746
-6.41877
-6.41975
-6.42051
-6.42113
-6.42166
-6.42215
-6.42266
-6.42322
-6.42388
-6.42468
-6.42564
-6.42681
-6.4282
-6.42984
-6.43174
-6.43393
-6.43642
-6.43922
-6.44234
-6.4458
-6.4496
-6.45375
-6.45826
-6.46313
-6.46836
-6.47397
-6.47996
-6.48632
-6.49307
-6.5002
-6.50773
-6.51564
-6.52396
-6.53267
-6.54179
-6.55132
-6.56126
-6.57161
-6.58238
-6.59356
-6.60517
-6.61722
-6.62971
-6.64265
-6.65605
-6.66991
-6.68422
-6.699
-6.71423
-6.72994
-6.74612
-6.76277
-6.77991
-6.79752
-6.81562
-6.8342
-6.85326
-6.87279
-6.89278
-6.91324
-6.93414
-6.95548
-6.97724
-6.9994
-7.02196
-7.04489
-7.06816
-7.09177
-7.11568
-7.13986
-7.16429
-7.18893
-7.21376
-7.23875
-7.26385
-7.28904
-7.31429
-7.33958
-7.36487
-7.39015
-7.41539
-7.44057
-7.46569
-7.49072
-7.51567
-7.54052
-7.56528
-7.58996
-7.61459
-7.6392
-7.66383
-7.68853
-7.71337
-7.73843
-7.76381
-7.78961
-7.81598
-7.84304
-7.87096
-7.89991
-7.93007
-7.96163
-7.99478
-8.02972
-8.06665
-8.10571
-8.14706
-8.19077
-8.23688
-8.28534
-8.33602
-8.38872
-8.44311
-8.49873
-8.555
-8.61117
-8.66633
-8.71939
-8.76906
-8.81382
-8.85194
-8.8814
-8.89992
-8.90502
-8.89396
-8.86357
-8.81034
-8.73074
-8.62166
-8.47967
-8.29936
-8.07487
-7.80229
-7.47845
-7.1001
-6.66424
-6.16819
-5.60971
-4.98727
-4.30004
-3.54805
-2.73234
-1.85526
-0.920721
0.0661124
1.09899
2.17002
3.26986
4.38867
5.51549
6.63855
7.74632
8.82637
9.86712
10.8585
11.7929
12.6685
13.4826
14.2303
14.909
15.5171
16.0537
16.5195
16.9176
17.2529
17.5314
17.7588
17.9407
18.082
18.1877
18.2631
18.3143
18.3477
18.3706
18.3869
18.4107
18.3879
-6.40975
-6.41156
-6.41385
-6.41564
-6.41694
-6.41797
-6.41882
-6.41956
-6.42023
-6.4209
-6.4216
-6.42238
-6.42327
-6.4243
-6.42552
-6.42694
-6.42859
-6.43049
-6.43267
-6.43513
-6.4379
-6.44098
-6.44438
-6.44812
-6.45221
-6.45664
-6.46144
-6.46659
-6.47212
-6.47801
-6.48428
-6.49093
-6.49797
-6.50539
-6.5132
-6.52141
-6.53002
-6.53903
-6.54844
-6.55827
-6.5685
-6.57916
-6.59024
-6.60175
-6.61369
-6.62607
-6.63891
-6.6522
-6.66596
-6.68017
-6.69484
-6.70998
-6.72559
-6.74167
-6.75824
-6.77528
-6.79281
-6.81081
-6.8293
-6.84826
-6.86769
-6.88759
-6.90794
-6.92874
-6.94997
-6.97162
-6.99367
-7.01611
-7.03892
-7.06207
-7.08554
-7.10931
-7.13336
-7.15764
-7.18214
-7.20682
-7.23164
-7.25658
-7.2816
-7.30668
-7.33178
-7.35689
-7.38198
-7.40703
-7.43202
-7.45694
-7.48177
-7.50651
-7.53115
-7.55569
-7.58015
-7.60455
-7.62892
-7.6533
-7.67774
-7.70233
-7.72712
-7.75223
-7.77776
-7.80385
-7.83065
-7.85833
-7.88705
-7.91702
-7.94843
-7.9815
-8.01645
-8.05348
-8.09278
-8.13453
-8.17882
-8.22572
-8.27518
-8.32711
-8.38133
-8.43752
-8.49525
-8.55393
-8.61283
-8.67107
-8.72756
-8.78102
-8.82994
-8.8726
-8.90696
-8.93077
-8.94153
-8.93647
-8.91241
-8.86578
-8.79307
-8.69122
-8.55657
-8.38295
-8.16476
-7.89864
-7.58127
-7.20936
-6.77985
-6.29001
-5.7375
-5.12064
-4.43856
-3.69121
-2.87942
-2.0054
-1.07309
-0.0877707
0.944516
2.01596
3.1168
4.23729
5.36625
6.49115
7.60051
8.68144
9.724
10.7206
11.6645
12.5497
13.3709
14.1245
14.8078
15.4195
15.9589
16.4268
16.8266
17.1633
17.443
17.672
17.8559
18.0001
18.1094
18.1888
18.2434
18.2787
18.3005
18.3102
18.3196
18.2749
-6.40513
-6.40736
-6.41022
-6.41247
-6.41413
-6.41545
-6.41656
-6.41754
-6.41844
-6.41931
-6.42019
-6.42112
-6.42215
-6.42331
-6.42462
-6.42612
-6.42784
-6.4298
-6.43201
-6.4345
-6.43729
-6.44038
-6.44379
-6.44753
-6.45161
-6.45604
-6.46081
-6.46595
-6.47144
-6.47731
-6.48355
-6.49016
-6.49716
-6.50455
-6.51232
-6.52048
-6.52905
-6.53801
-6.54739
-6.55717
-6.56736
-6.57798
-6.58902
-6.60049
-6.6124
-6.62476
-6.63756
-6.65082
-6.66454
-6.67872
-6.69336
-6.70847
-6.72406
-6.74012
-6.75666
-6.77368
-6.79118
-6.80917
-6.82762
-6.84656
-6.86596
-6.88582
-6.90613
-6.92689
-6.94807
-6.96967
-6.99166
-7.01403
-7.03676
-7.05983
-7.08321
-7.10689
-7.13083
-7.155
-7.17938
-7.20392
-7.2286
-7.25339
-7.27825
-7.30316
-7.32809
-7.35302
-7.37792
-7.40278
-7.42757
-7.45228
-7.4769
-7.50143
-7.52584
-7.55016
-7.57438
-7.59854
-7.62266
-7.64679
-7.67099
-7.69532
-7.71986
-7.74471
-7.76998
-7.79582
-7.82237
-7.84982
-7.87835
-7.90816
-7.93947
-7.9725
-8.00749
-8.04468
-8.0843
-8.12652
-8.17149
-8.21927
-8.26987
-8.32321
-8.3791
-8.43727
-8.49728
-8.55857
-8.62044
-8.682
-8.74217
-8.7997
-8.85307
-8.90055
-8.94013
-8.96954
-8.98628
-8.98755
-8.97014
-8.93044
-8.86496
-8.77066
-8.64349
-8.47662
-8.26483
-8.00529
-7.69453
-7.3292
-6.90617
-6.42263
-5.87612
-5.26485
-4.58787
-3.84509
-3.03713
-2.16594
-1.23555
-0.251473
0.780557
1.8529
2.95502
4.07726
5.20827
6.33467
7.44643
8.53095
9.58057
10.5868
11.5391
12.4323
13.2613
14.0223
14.7126
15.3306
15.8756
16.3486
16.7526
17.0926
17.3747
17.6056
17.7914
17.9376
18.0489
18.13
18.1857
18.2202
18.2382
18.24
18.2355
18.1726
-6.40116
-6.40371
-6.40702
-6.40964
-6.4116
-6.41318
-6.41454
-6.41574
-6.41685
-6.41791
-6.41897
-6.42007
-6.42125
-6.42255
-6.42399
-6.4256
-6.42742
-6.42947
-6.43176
-6.43433
-6.43718
-6.44033
-6.4438
-6.44758
-6.4517
-6.45616
-6.46096
-6.46612
-6.47164
-6.47752
-6.48377
-6.4904
-6.49741
-6.5048
-6.51258
-6.52075
-6.52933
-6.5383
-6.54768
-6.55747
-6.56768
-6.57831
-6.58936
-6.60085
-6.61278
-6.62515
-6.63797
-6.65125
-6.66499
-6.6792
-6.69387
-6.70901
-6.72463
-6.74072
-6.75729
-6.77435
-6.79188
-6.80989
-6.82837
-6.84732
-6.86674
-6.88661
-6.90694
-6.92769
-6.94887
-6.97045
-6.99242
-7.01476
-7.03744
-7.06046
-7.08378
-7.10738
-7.13123
-7.1553
-7.17956
-7.20398
-7.22852
-7.25315
-7.27785
-7.30258
-7.32733
-7.35206
-7.37675
-7.40139
-7.42596
-7.45045
-7.47485
-7.49913
-7.52331
-7.54738
-7.57136
-7.59527
-7.61915
-7.64303
-7.66699
-7.69108
-7.71538
-7.73999
-7.76504
-7.79067
-7.81703
-7.84431
-7.8727
-7.90241
-7.93368
-7.96674
-8.00185
-8.03928
-8.07928
-8.12206
-8.1678
-8.21658
-8.26843
-8.32327
-8.38095
-8.44119
-8.50359
-8.56761
-8.63255
-8.69755
-8.76154
-8.82326
-8.88122
-8.93367
-8.97862
-9.01379
-9.03667
-9.04445
-9.03387
-9.00128
-8.94324
-8.85671
-8.73698
-8.57682
-8.37154
-8.11867
-7.81467
-7.45608
-7.03968
-6.56258
-6.02222
-5.41665
-4.74486
-4.00679
-3.20272
-2.33434
-1.40583
-0.423089
0.608569
1.68174
2.78464
3.90798
5.04109
6.16962
7.286
8.37858
9.43512
10.4481
11.4082
12.3094
13.1468
13.9166
14.6159
15.2429
15.7968
16.2784
16.6903
17.0369
17.324
17.5584
17.7466
17.8942
18.0062
18.0871
18.1412
18.1724
18.1846
18.1772
18.1596
18.0816
-6.39825
-6.40096
-6.40454
-6.40741
-6.40956
-6.41134
-6.41288
-6.41425
-6.41552
-6.41673
-6.41794
-6.41918
-6.4205
-6.42193
-6.4235
-6.42524
-6.42719
-6.42935
-6.43176
-6.43443
-6.43738
-6.44062
-6.44417
-6.44804
-6.45223
-6.45675
-6.46161
-6.46683
-6.4724
-6.47833
-6.48463
-6.49131
-6.49836
-6.5058
-6.51362
-6.52184
-6.53045
-6.53947
-6.54889
-6.55873
-6.56899
-6.57967
-6.59077
-6.60232
-6.6143
-6.62673
-6.63962
-6.65296
-6.66677
-6.68104
-6.69578
-6.71099
-6.72668
-6.74285
-6.7595
-6.77663
-6.79423
-6.8123
-6.83085
-6.84986
-6.86933
-6.88925
-6.90961
-6.9304
-6.9516
-6.97319
-6.99516
-7.01748
-7.04014
-7.06312
-7.08638
-7.10991
-7.13367
-7.15764
-7.18178
-7.20606
-7.23044
-7.2549
-7.27942
-7.30395
-7.32849
-7.35299
-7.37745
-7.40185
-7.42617
-7.4504
-7.47453
-7.49856
-7.52247
-7.54628
-7.57
-7.59366
-7.61729
-7.64094
-7.66467
-7.68854
-7.71263
-7.73705
-7.76192
-7.78739
-7.81363
-7.84081
-7.86914
-7.89884
-7.93016
-7.96335
-7.99868
-8.03645
-8.07694
-8.1204
-8.167
-8.21685
-8.26999
-8.32639
-8.38588
-8.44822
-8.51302
-8.57977
-8.64778
-8.71622
-8.78402
-8.84993
-8.91247
-8.96989
-9.02022
-9.06116
-9.0902
-9.10449
-9.10075
-9.07529
-9.02476
-8.94604
-8.83355
-8.6799
-8.48114
-8.235
-7.93785
-7.58606
-7.17637
-6.70578
-6.17163
-5.57183
-4.90534
-4.17209
-3.37192
-2.50625
-1.57973
-0.598734
0.431997
1.5055
2.60868
3.73234
4.86849
6.00237
7.12291
8.22034
9.2826
10.3015
11.2684
12.177
13.0226
13.8013
14.5103
15.1481
15.7138
16.2079
16.6321
16.9897
17.2859
17.5268
17.719
17.8685
17.9804
18.0594
18.1099
18.1356
18.1401
18.1227
18.0927
18.0016
-6.39645
-6.3992
-6.40286
-6.40583
-6.40809
-6.40996
-6.4116
-6.41308
-6.41445
-6.41576
-6.41707
-6.41842
-6.41985
-6.42139
-6.42309
-6.42495
-6.42702
-6.42931
-6.43184
-6.43463
-6.4377
-6.44105
-6.44471
-6.44867
-6.45295
-6.45757
-6.46252
-6.46781
-6.47346
-6.47947
-6.48584
-6.49259
-6.49971
-6.50721
-6.5151
-6.52339
-6.53207
-6.54116
-6.55066
-6.56057
-6.5709
-6.58165
-6.59284
-6.60447
-6.61654
-6.62906
-6.64204
-6.65548
-6.66938
-6.68375
-6.6986
-6.71392
-6.72971
-6.74599
-6.76275
-6.77998
-6.79768
-6.81585
-6.83448
-6.85358
-6.87313
-6.89312
-6.91354
-6.93438
-6.95561
-6.97723
-6.99921
-7.02153
-7.04417
-7.0671
-7.09031
-7.11376
-7.13742
-7.16127
-7.18526
-7.20938
-7.23358
-7.25784
-7.28214
-7.30644
-7.33072
-7.35496
-7.37914
-7.40325
-7.42727
-7.45121
-7.47504
-7.49877
-7.52239
-7.54591
-7.56935
-7.59274
-7.61612
-7.63954
-7.66305
-7.68672
-7.71064
-7.73491
-7.75966
-7.78504
-7.81122
-7.83839
-7.86676
-7.89657
-7.92806
-7.9615
-7.99718
-8.03542
-8.07653
-8.12075
-8.16827
-8.21922
-8.27366
-8.33159
-8.39287
-8.45727
-8.52443
-8.59385
-8.66488
-8.73667
-8.80819
-8.87819
-8.94519
-9.00748
-9.06305
-9.10963
-9.14468
-9.16534
-9.16827
-9.14979
-9.10667
-9.03565
-8.92993
-8.78239
-8.59007
-8.35059
-8.0602
-7.71508
-7.31194
-6.84769
-6.31959
-5.72543
-5.06413
-4.33568
-3.53937
-2.67646
-1.75224
-0.773646
0.254746
1.32763
2.43258
3.55796
4.69543
5.83229
6.95644
8.05754
9.12439
10.1481
11.1206
12.0354
12.8877
13.6741
14.3922
15.0408
15.6194
16.1283
16.5687
16.9425
17.253
17.505
17.7045
17.8575
17.9696
18.0457
18.0908
18.1092
18.1046
18.0767
18.0348
17.9321
-6.39573
-6.39837
-6.40195
-6.40489
-6.40715
-6.40903
-6.4107
-6.4122
-6.4136
-6.41496
-6.41633
-6.41774
-6.41924
-6.42088
-6.42266
-6.42464
-6.42682
-6.42923
-6.43188
-6.4348
-6.43798
-6.44145
-6.44522
-6.44929
-6.45368
-6.4584
-6.46345
-6.46884
-6.47458
-6.48068
-6.48714
-6.49397
-6.50118
-6.50877
-6.51675
-6.52512
-6.53389
-6.54306
-6.55265
-6.56265
-6.57308
-6.58394
-6.59523
-6.60696
-6.61914
-6.63178
-6.64487
-6.65843
-6.67245
-6.68695
-6.70192
-6.71737
-6.7333
-6.74971
-6.76659
-6.78395
-6.80177
-6.82006
-6.8388
-6.858
-6.87763
-6.89771
-6.9182
-6.93909
-6.96037
-6.98201
-7.00399
-7.02631
-7.04892
-7.0718
-7.09494
-7.11829
-7.14182
-7.16551
-7.18933
-7.21324
-7.23722
-7.26123
-7.28525
-7.30926
-7.33323
-7.35715
-7.38099
-7.40475
-7.42842
-7.45199
-7.47547
-7.49884
-7.52212
-7.54532
-7.56845
-7.59155
-7.61467
-7.63784
-7.66113
-7.68462
-7.70839
-7.73255
-7.75723
-7.78259
-7.80879
-7.83604
-7.86456
-7.89459
-7.92639
-7.96022
-7.9964
-8.03525
-8.07707
-8.12212
-8.17062
-8.22271
-8.27848
-8.33793
-8.40098
-8.4674
-8.53686
-8.60889
-8.68282
-8.75783
-8.83291
-8.90682
-8.9781
-9.04503
-9.1056
-9.15753
-9.1983
-9.22501
-9.23427
-9.22242
-9.18646
-9.12276
-9.02304
-8.881
-8.69487
-8.46176
-8.1778
-7.83896
-7.44194
-6.98363
-6.4612
-5.8724
-5.21618
-4.49275
-3.70139
-2.84249
-1.92099
-0.943905
0.0830576
1.15406
2.2589
3.38568
4.52438
5.6631
6.78986
7.89372
8.96394
9.99131
10.9678
11.8872
12.7446
13.537
14.2623
14.92
15.5103
16.034
16.4923
16.8858
17.216
17.4849
17.6967
17.8565
17.9703
18.0437
18.0826
18.0925
18.0779
18.0389
17.9853
17.8721
-6.39593
-6.39835
-6.40169
-6.40448
-6.40664
-6.40846
-6.41007
-6.41154
-6.41292
-6.41427
-6.41564
-6.41708
-6.41863
-6.42032
-6.42218
-6.42424
-6.42651
-6.42902
-6.43178
-6.43481
-6.4381
-6.44169
-6.44557
-6.44975
-6.45425
-6.45907
-6.46422
-6.46972
-6.47556
-6.48176
-6.48832
-6.49525
-6.50255
-6.51024
-6.51832
-6.52679
-6.53566
-6.54494
-6.55463
-6.56474
-6.57527
-6.58624
-6.59765
-6.60951
-6.62181
-6.63458
-6.6478
-6.6615
-6.67566
-6.6903
-6.70542
-6.72101
-6.73709
-6.75365
-6.77067
-6.78817
-6.80612
-6.82454
-6.8434
-6.8627
-6.88243
-6.90258
-6.92314
-6.94408
-6.96539
-6.98704
-7.00902
-7.0313
-7.05386
-7.07666
-7.09968
-7.12289
-7.14625
-7.16974
-7.19332
-7.21697
-7.24065
-7.26434
-7.28802
-7.31166
-7.33524
-7.35875
-7.38217
-7.40549
-7.42871
-7.45185
-7.47488
-7.49783
-7.5207
-7.5435
-7.56627
-7.58904
-7.61185
-7.63475
-7.65782
-7.68111
-7.70474
-7.72883
-7.7535
-7.77889
-7.80518
-7.8326
-7.86137
-7.89175
-7.924
-7.95838
-7.99521
-8.0348
-8.07745
-8.12345
-8.17302
-8.22632
-8.28348
-8.3445
-8.40932
-8.47775
-8.54946
-8.62399
-8.7007
-8.77879
-8.85724
-8.93483
-9.01011
-9.08136
-9.14657
-9.20347
-9.24953
-9.28183
-9.29688
-9.29114
-9.2619
-9.20471
-9.11002
-8.97281
-8.79236
-8.56517
-8.2874
-7.95491
-7.56404
-7.11173
-6.59508
-6.01177
-5.36053
-4.64137
-3.85449
-3.00029
-2.08245
-1.10738
-0.0814643
0.988305
2.09237
3.21953
4.35886
5.49857
6.62683
7.73242
8.80472
9.83444
10.8136
11.736
12.597
13.3935
14.1241
14.7886
15.3881
15.9243
16.399
16.813
17.166
17.4572
17.6873
17.859
17.9778
18.05
18.0831
18.084
18.0588
18.0086
17.9437
17.8207
-6.39684
-6.39896
-6.40193
-6.40448
-6.40647
-6.40815
-6.40964
-6.41102
-6.41232
-6.41362
-6.41495
-6.41638
-6.41794
-6.41965
-6.42156
-6.42368
-6.42603
-6.42862
-6.43146
-6.43458
-6.43797
-6.44166
-6.44564
-6.44992
-6.45453
-6.45945
-6.46471
-6.47031
-6.47626
-6.48256
-6.48922
-6.49626
-6.50367
-6.51146
-6.51964
-6.52822
-6.5372
-6.54659
-6.55639
-6.56662
-6.57728
-6.58837
-6.59991
-6.6119
-6.62434
-6.63725
-6.65062
-6.66446
-6.67878
-6.69357
-6.70884
-6.7246
-6.74083
-6.75754
-6.77471
-6.79235
-6.81043
-6.82897
-6.84794
-6.86733
-6.88715
-6.90736
-6.92796
-6.94893
-6.97024
-6.99187
-7.0138
-7.03601
-7.05846
-7.08112
-7.10397
-7.12696
-7.15008
-7.17328
-7.19654
-7.21983
-7.24312
-7.26639
-7.28961
-7.31277
-7.33585
-7.35885
-7.38172
-7.40449
-7.42716
-7.44973
-7.47222
-7.49465
-7.51701
-7.53934
-7.56167
-7.58403
-7.60648
-7.62907
-7.65186
-7.67495
-7.69844
-7.72246
-7.74713
-7.77258
-7.79901
-7.82665
-7.85576
-7.88658
-7.91937
-7.95442
-7.99202
-8.03248
-8.07612
-8.1232
-8.17397
-8.22862
-8.28727
-8.34996
-8.41663
-8.4871
-8.56108
-8.6381
-8.71755
-8.79862
-8.88032
-8.96143
-9.0405
-9.11582
-9.18539
-9.24693
-9.29793
-9.33538
-9.35576
-9.35579
-9.33293
-9.28109
-9.19061
-9.05803
-8.88277
-8.661
-8.38886
-8.06234
-7.67742
-7.2309
-6.71987
-6.14192
-5.49554
-4.7804
-3.99695
-3.1463
-2.23179
-1.25909
-0.234745
0.833638
1.93656
3.06319
4.20228
5.342
6.47055
7.57663
8.64966
9.68036
10.6608
11.5849
12.4479
13.2471
13.9813
14.6506
15.2567
15.8022
16.29
16.7218
17.0973
17.4137
17.6675
17.8573
17.986
18.0605
18.0894
18.082
18.0463
17.9849
17.9087
17.7765
-6.39824
-6.40001
-6.40253
-6.40475
-6.40651
-6.40799
-6.40932
-6.41055
-6.41173
-6.41293
-6.4142
-6.41558
-6.41712
-6.41884
-6.42077
-6.42292
-6.42531
-6.42796
-6.43087
-6.43406
-6.43753
-6.44129
-6.44536
-6.44974
-6.45444
-6.45946
-6.46482
-6.47052
-6.47657
-6.48298
-6.48975
-6.49689
-6.50441
-6.51231
-6.5206
-6.52929
-6.53838
-6.54789
-6.55781
-6.56817
-6.57895
-6.59018
-6.60186
-6.61399
-6.62658
-6.63963
-6.65315
-6.66715
-6.68162
-6.69657
-6.712
-6.7279
-6.74429
-6.76114
-6.77845
-6.79621
-6.81441
-6.83304
-6.85209
-6.87155
-6.8914
-6.91164
-6.93223
-6.95317
-6.97442
-6.99596
-7.01778
-7.03983
-7.06208
-7.08451
-7.10708
-7.12976
-7.15251
-7.17531
-7.19812
-7.22092
-7.24369
-7.26639
-7.28901
-7.31155
-7.33399
-7.35632
-7.3785
-7.40056
-7.42251
-7.44439
-7.46619
-7.48794
-7.50967
-7.5314
-7.55317
-7.57501
-7.59699
-7.61916
-7.6416
-7.66439
-7.68765
-7.71151
-7.73611
-7.7616
-7.78818
-7.81608
-7.84556
-7.87688
-7.91029
-7.9461
-7.9846
-8.0261
-8.07088
-8.11923
-8.17141
-8.2276
-8.28794
-8.35249
-8.42118
-8.49388
-8.57026
-8.6499
-8.73217
-8.81629
-8.90126
-8.98588
-9.06869
-9.14798
-9.22176
-9.28777
-9.34346
-9.38574
-9.41115
-9.41686
-9.39995
-9.35201
-9.26473
-9.13658
-8.96608
-8.7492
-8.48195
-8.16036
-7.78045
-7.33884
-6.83253
-6.25909
-5.61691
-4.90543
-4.12513
-3.2775
-2.3659
-1.39562
-0.373231
0.693375
1.79464
2.91987
4.05768
5.19624
6.32374
7.42888
8.50116
9.53132
10.5116
11.4358
12.2996
13.1002
13.8365
14.5092
15.12
15.6721
16.1693
16.6147
17.0092
17.3499
17.63
17.8434
17.9883
18.0698
18.0979
18.0839
18.0385
17.9664
17.8793
17.7385
-6.39992
-6.40132
-6.40337
-6.40521
-6.40669
-6.40793
-6.40904
-6.41007
-6.41109
-6.41216
-6.41333
-6.41464
-6.41613
-6.41782
-6.41974
-6.42189
-6.4243
-6.42698
-6.42993
-6.43317
-6.4367
-6.44053
-6.44467
-6.44913
-6.45392
-6.45904
-6.46449
-6.47029
-6.47644
-6.48296
-6.48983
-6.49708
-6.50471
-6.51272
-6.52112
-6.52992
-6.53913
-6.54875
-6.5588
-6.56928
-6.5802
-6.59156
-6.60338
-6.61565
-6.62838
-6.64158
-6.65525
-6.66939
-6.684
-6.6991
-6.71466
-6.7307
-6.74721
-6.76417
-6.78158
-6.79942
-6.81768
-6.83635
-6.85541
-6.87486
-6.89467
-6.91484
-6.93534
-6.95615
-6.97723
-6.99857
-7.02014
-7.0419
-7.06383
-7.08588
-7.10802
-7.13022
-7.15246
-7.17468
-7.19688
-7.21901
-7.24107
-7.26301
-7.28484
-7.30654
-7.32811
-7.34954
-7.37083
-7.392
-7.41305
-7.43403
-7.45496
-7.47587
-7.49678
-7.51773
-7.53877
-7.55994
-7.58129
-7.6029
-7.62485
-7.64724
-7.67017
-7.69379
-7.71825
-7.74373
-7.77044
-7.79862
-7.8285
-7.86037
-7.89449
-7.93118
-7.97073
-8.01344
-8.05959
-8.10945
-8.16329
-8.22129
-8.2836
-8.35028
-8.42128
-8.49644
-8.57547
-8.65794
-8.74323
-8.83055
-8.91891
-9.0071
-9.09366
-9.17689
-9.25479
-9.32512
-9.38522
-9.43196
-9.46214
-9.47337
-9.46124
-9.41547
-9.33042
-9.20615
-9.0397
-8.82696
-8.56384
-8.24633
-7.87049
-7.43284
-6.93032
-6.36048
-5.72167
-5.01327
-4.23572
-3.39072
-2.48169
-1.51382
-0.493699
0.570623
1.66954
2.79239
3.92773
5.06375
6.18868
7.29126
8.36111
9.38906
10.3675
11.2903
12.1534
12.954
13.6914
14.3661
14.9803
15.5371
16.0409
16.4959
16.9047
17.2656
17.5713
17.8113
17.9781
18.0727
18.1044
18.0868
18.0334
17.9515
17.8542
17.7054
-6.40172
-6.40279
-6.40439
-6.40585
-6.40701
-6.40796
-6.4088
-6.40958
-6.41039
-6.41129
-6.41232
-6.41353
-6.41493
-6.41656
-6.41842
-6.42055
-6.42294
-6.42561
-6.42858
-6.43184
-6.43541
-6.4393
-6.4435
-6.44803
-6.4529
-6.4581
-6.46365
-6.46955
-6.47581
-6.48242
-6.4894
-6.49676
-6.50449
-6.51261
-6.52112
-6.53004
-6.53936
-6.54909
-6.55926
-6.56985
-6.58089
-6.59238
-6.60432
-6.61672
-6.62958
-6.6429
-6.65668
-6.67094
-6.68566
-6.70085
-6.7165
-6.73261
-6.74917
-6.76617
-6.78359
-6.80141
-6.81963
-6.83822
-6.85717
-6.87647
-6.8961
-6.91604
-6.93627
-6.95677
-6.97751
-6.99845
-7.01958
-7.04086
-7.06224
-7.0837
-7.1052
-7.12672
-7.14821
-7.16964
-7.19099
-7.21223
-7.23335
-7.25431
-7.27512
-7.29576
-7.31623
-7.33655
-7.35672
-7.37677
-7.39672
-7.41661
-7.43648
-7.45635
-7.47627