/*--------------------------------*- C++ -*----------------------------------*\
| =========                 |                                                 |
| \\      /  F ield         | OpenFOAM: The Open Source CFD Toolbox           |
|  \\    /   O peration     | Version:  1.4.2                                 |
|   \\  /    A nd           | Web:      http://www.openfoam.org               |
|    \\/     M anipulation  |                                                 |
\*---------------------------------------------------------------------------*/
FoamFile
{
    version     2.0;
    format      ascii;
    class       surfaceScalarField;
    object      phi;
    location    "600";
}
// * * * * * * * * * * * * * * * * * * * * * * * * * * * * * * * * * * * * * //

dimensions      [0 3 -1 0 0 0 0];

internalField   nonuniform List<scalar> 
24170
(
3.03918e-06
9.47136e-08
2.96658e-06
7.25963e-08
2.90196e-06
6.46249e-08
2.84071e-06
6.12413e-08
2.78294e-06
5.77724e-08
2.72886e-06
5.408e-08
2.67841e-06
5.04567e-08
2.63141e-06
4.69938e-08
2.58774e-06
4.36767e-08
2.54724e-06
4.05013e-08
2.50978e-06
3.74621e-08
2.47523e-06
3.4548e-08
2.44349e-06
3.17387e-08
2.41449e-06
2.8995e-08
2.38825e-06
2.62407e-08
2.36495e-06
2.3299e-08
2.34512e-06
1.98291e-08
9.74317e-09
2.33538e-06
3.46199e-06
8.91654e-08
3.45385e-06
8.07308e-08
3.4444e-06
7.40766e-08
3.43377e-06
7.18754e-08
3.42221e-06
6.93348e-08
3.41012e-06
6.61658e-08
3.39774e-06
6.28477e-08
3.38519e-06
5.95391e-08
3.37261e-06
5.6258e-08
3.36011e-06
5.30016e-08
3.34779e-06
4.97775e-08
3.33577e-06
4.65704e-08
3.32415e-06
4.33496e-08
3.3131e-06
4.00438e-08
3.30284e-06
3.65079e-08
3.29372e-06
3.24189e-08
3.28659e-06
2.69569e-08
1.74839e-08
3.27885e-06
3.82432e-06
7.70324e-08
3.8263e-06
7.87597e-08
3.82559e-06
7.47813e-08
3.82403e-06
7.34325e-08
3.82185e-06
7.15211e-08
3.81921e-06
6.88038e-08
3.81627e-06
6.57916e-08
3.81312e-06
6.2688e-08
3.80984e-06
5.95449e-08
3.80647e-06
5.63689e-08
3.80307e-06
5.31712e-08
3.79971e-06
4.99322e-08
3.79645e-06
4.66102e-08
3.79338e-06
4.31143e-08
3.79061e-06
3.92758e-08
3.78825e-06
3.47727e-08
3.78619e-06
2.9018e-08
2.09721e-08
3.78271e-06
4.21689e-06
6.46949e-08
4.22211e-06
7.35403e-08
4.22429e-06
7.26081e-08
4.22554e-06
7.2182e-08
4.22624e-06
7.08172e-08
4.22654e-06
6.85092e-08
4.22656e-06
6.57719e-08
4.2264e-06
6.28419e-08
4.22615e-06
5.98042e-08
4.22583e-06
5.66829e-08
4.22551e-06
5.34943e-08
4.22522e-06
5.02211e-08
4.22501e-06
4.68189e-08
4.22493e-06
4.3197e-08
4.225e-06
3.92015e-08
4.22519e-06
3.45839e-08
4.22519e-06
2.90163e-08
2.22129e-08
4.22395e-06
4.64869e-06
5.33071e-08
4.65544e-06
6.67958e-08
4.6593e-06
6.87434e-08
4.66209e-06
6.93901e-08
4.66428e-06
6.86276e-08
4.66604e-06
6.67492e-08
4.66751e-06
6.43046e-08
4.66879e-06
6.15655e-08
4.66995e-06
5.86477e-08
4.67103e-06
5.55954e-08
4.6721e-06
5.24329e-08
4.67317e-06
4.91494e-08
4.67428e-06
4.57063e-08
4.67545e-06
4.20265e-08
4.67666e-06
3.79908e-08
4.6778e-06
3.34384e-08
4.67859e-06
2.82315e-08
2.24212e-08
4.67838e-06
5.12455e-06
4.33486e-08
5.13199e-06
5.93569e-08
5.13706e-06
6.36738e-08
5.14105e-06
6.5396e-08
5.14436e-06
6.5318e-08
5.14718e-06
6.39371e-08
5.14965e-06
6.18356e-08
5.15189e-06
5.93263e-08
5.15397e-06
5.65608e-08
5.15596e-06
5.36085e-08
5.15789e-06
5.05055e-08
5.15979e-06
4.72519e-08
5.16167e-06
4.3821e-08
5.16354e-06
4.01572e-08
5.16535e-06
3.61829e-08
5.16697e-06
3.18148e-08
5.16817e-06
2.70329e-08
2.20133e-08
5.16858e-06
5.64938e-06
3.49709e-08
5.65696e-06
5.1779e-08
5.66282e-06
5.78116e-08
5.66776e-06
6.0462e-08
5.67202e-06
6.10558e-08
5.67575e-06
6.02039e-08
5.6791e-06
5.84939e-08
5.68215e-06
5.6267e-08
5.68501e-06
5.37031e-08
5.68773e-06
5.08961e-08
5.69033e-06
4.78975e-08
5.69286e-06
4.47227e-08
5.69532e-06
4.13623e-08
5.69769e-06
3.7787e-08
5.69991e-06
3.39595e-08
5.70187e-06
2.98559e-08
5.70339e-06
2.55201e-08
2.11517e-08
5.70425e-06
4.4112e-06
2.98793e-08
4.4165e-06
4.64766e-08
4.42102e-06
5.32986e-08
4.42496e-06
5.65185e-08
4.42848e-06
5.75401e-08
4.43163e-06
5.70453e-08
4.43451e-06
5.56213e-08
4.43716e-06
5.36144e-08
4.43965e-06
5.12196e-08
4.442e-06
4.85442e-08
4.44424e-06
4.56506e-08
4.4464e-06
4.25658e-08
4.44847e-06
3.92939e-08
4.45043e-06
3.58244e-08
4.45225e-06
3.21455e-08
4.45384e-06
2.82648e-08
4.45511e-06
2.42503e-08
2.02905e-08
4.45597e-06
5.14459e-06
2.51411e-08
5.15007e-06
4.10002e-08
5.15506e-06
4.83077e-08
5.15961e-06
5.19675e-08
5.16378e-06
5.33752e-08
5.16759e-06
5.32304e-08
5.17111e-06
5.2102e-08
5.17439e-06
5.03367e-08
5.17747e-06
4.81385e-08
5.18039e-06
4.56262e-08
5.18317e-06
4.28726e-08
5.18582e-06
3.99163e-08
5.18834e-06
3.67758e-08
5.1907e-06
3.34589e-08
5.19287e-06
2.9977e-08
5.19477e-06
2.6361e-08
5.19633e-06
2.26899e-08
1.91339e-08
5.19749e-06
6.0001e-06
2.08331e-08
6.00562e-06
3.54831e-08
6.01097e-06
4.29483e-08
6.01607e-06
4.68743e-08
6.02086e-06
4.8586e-08
6.02533e-06
4.87557e-08
6.02952e-06
4.79132e-08
6.03346e-06
4.63974e-08
6.03719e-06
4.44153e-08
6.04072e-06
4.20941e-08
6.04408e-06
3.9515e-08
6.04726e-06
3.6728e-08
6.05028e-06
3.37651e-08
6.05308e-06
3.06508e-08
6.05565e-06
2.74144e-08
6.0579e-06
2.41017e-08
6.0598e-06
2.07924e-08
1.7633e-08
6.0613e-06
6.99811e-06
1.69921e-08
7.00353e-06
3.00532e-08
7.00915e-06
3.73333e-08
7.01469e-06
4.13319e-08
7.02004e-06
4.32324e-08
7.02515e-06
4.36521e-08
7.03e-06
4.30651e-08
7.0346e-06
4.17914e-08
7.03899e-06
4.00349e-08
7.04315e-06
3.79264e-08
7.04712e-06
3.55534e-08
7.05087e-06
3.29754e-08
7.0544e-06
3.02357e-08
7.05768e-06
2.73721e-08
7.06066e-06
2.44254e-08
7.06332e-06
2.14486e-08
7.06559e-06
1.85148e-08
1.57447e-08
7.06748e-06
8.1624e-06
1.36048e-08
8.16764e-06
2.48147e-08
8.1734e-06
3.15748e-08
8.17928e-06
3.54418e-08
8.18512e-06
3.73949e-08
8.1908e-06
3.79775e-08
8.19627e-06
3.75975e-08
8.20151e-06
3.65448e-08
8.20654e-06
3.50129e-08
8.21133e-06
3.31316e-08
8.2159e-06
3.09913e-08
8.22021e-06
2.86578e-08
8.22427e-06
2.61825e-08
8.22803e-06
2.36112e-08
8.23146e-06
2.09907e-08
8.23453e-06
1.83737e-08
8.23722e-06
1.58234e-08
1.34357e-08
8.23953e-06
9.52071e-06
1.06178e-08
9.5257e-06
1.98311e-08
9.5315e-06
2.57682e-08
9.53765e-06
2.92968e-08
9.54388e-06
3.11564e-08
9.55006e-06
3.18008e-08
9.55609e-06
3.15664e-08
9.56194e-06
3.07033e-08
9.56756e-06
2.93874e-08
9.57295e-06
2.77416e-08
9.57809e-06
2.58551e-08
9.58295e-06
2.37958e-08
9.58752e-06
2.16186e-08
9.59175e-06
1.93725e-08
9.59564e-06
1.71043e-08
9.59915e-06
1.48622e-08
9.60227e-06
1.26977e-08
1.06849e-08
9.60502e-06
1.11054e-05
7.95336e-09
1.11101e-05
1.51143e-08
1.11159e-05
1.9977e-08
1.11222e-05
2.29655e-08
1.11288e-05
2.45834e-08
1.11354e-05
2.5182e-08
1.11419e-05
2.50245e-08
1.11483e-05
2.43141e-08
1.11545e-05
2.32008e-08
1.11605e-05
2.17946e-08
1.11661e-05
2.01784e-08
1.11715e-05
1.8417e-08
1.11766e-05
1.65642e-08
1.11813e-05
1.46667e-08
1.11856e-05
1.27676e-08
1.11896e-05
1.09075e-08
1.11931e-05
9.12678e-09
7.48135e-09
1.11963e-05
1.29541e-05
5.52174e-09
1.29586e-05
1.06217e-08
1.29643e-05
1.42153e-08
1.29708e-05
1.64766e-08
1.29777e-05
1.77082e-08
1.29847e-05
1.81537e-08
1.29917e-05
1.80021e-08
1.29986e-05
1.74044e-08
1.30054e-05
1.6478e-08
1.30118e-05
1.53131e-08
1.3018e-05
1.398e-08
1.30239e-05
1.25353e-08
1.30295e-05
1.10264e-08
1.30346e-05
9.49403e-09
1.30394e-05
7.97406e-09
1.30438e-05
6.49874e-09
1.30479e-05
5.09808e-09
3.8138e-09
1.30515e-05
1.51107e-05
3.22272e-09
1.51151e-05
6.25066e-09
1.51209e-05
8.42445e-09
1.51276e-05
9.79352e-09
1.51348e-05
1.05053e-08
1.51423e-05
1.06976e-08
1.51498e-05
1.04843e-08
1.51572e-05
9.96094e-09
1.51645e-05
9.20589e-09
1.51715e-05
8.28265e-09
1.51783e-05
7.24301e-09
1.51847e-05
6.1301e-09
1.51907e-05
4.9804e-09
1.51964e-05
3.82527e-09
1.52017e-05
2.69161e-09
1.52066e-05
1.60277e-09
1.52111e-05
5.79952e-10
-3.46237e-10
1.52152e-05
1.76267e-05
9.30782e-10
1.76312e-05
1.81289e-09
1.76372e-05
2.42865e-09
1.76442e-05
2.76434e-09
1.76519e-05
2.84399e-09
1.76599e-05
2.70192e-09
1.7668e-05
2.3746e-09
1.7676e-05
1.89786e-09
1.76839e-05
1.30545e-09
1.76916e-05
6.28327e-10
1.76989e-05
-1.05679e-10
1.77059e-05
-8.71544e-10
1.77126e-05
-1.64705e-09
1.77188e-05
-2.41265e-09
1.77247e-05
-3.15151e-09
1.77301e-05
-3.84908e-09
1.77352e-05
-4.49186e-09
-5.05817e-09
1.77399e-05
1.78284e-05
-1.24877e-09
1.78326e-05
-2.4235e-09
1.78384e-05
-3.31075e-09
1.78451e-05
-3.97668e-09
1.78525e-05
-4.51145e-09
1.78601e-05
-4.97948e-09
1.78679e-05
-5.41911e-09
1.78757e-05
-5.85212e-09
1.78833e-05
-6.28882e-09
1.78906e-05
-6.7312e-09
1.78977e-05
-7.1757e-09
1.79045e-05
-7.61569e-09
1.79109e-05
-8.04317e-09
1.79169e-05
-8.44985e-09
1.79226e-05
-8.82788e-09
1.79279e-05
-9.17006e-09
1.79329e-05
-9.46881e-09
-9.7092e-09
1.79375e-05
1.58834e-05
-3.30418e-09
1.58873e-05
-6.35881e-09
1.58926e-05
-8.55463e-09
1.58987e-05
-1.00501e-08
1.59052e-05
-1.10697e-08
1.5912e-05
-1.17745e-08
1.59189e-05
-1.22712e-08
1.59257e-05
-1.26334e-08
1.59323e-05
-1.29101e-08
1.59387e-05
-1.31313e-08
1.59448e-05
-1.33139e-08
1.59507e-05
-1.34665e-08
1.59562e-05
-1.35924e-08
1.59615e-05
-1.36923e-08
1.59664e-05
-1.37652e-08
1.5971e-05
-1.38091e-08
1.59754e-05
-1.38206e-08
-1.37896e-08
1.59795e-05
1.41508e-05
-5.44264e-09
1.41548e-05
-1.03269e-08
1.41599e-05
-1.36615e-08
1.41656e-05
-1.58052e-08
1.41717e-05
-1.7164e-08
1.4178e-05
-1.79973e-08
1.41842e-05
-1.84754e-08
1.41903e-05
-1.87197e-08
1.41962e-05
-1.8813e-08
1.42018e-05
-1.8808e-08
1.42073e-05
-1.87374e-08
1.42124e-05
-1.86215e-08
1.42173e-05
-1.84723e-08
1.42219e-05
-1.82968e-08
1.42262e-05
-1.8099e-08
1.42303e-05
-1.7881e-08
1.42341e-05
-1.76424e-08
-1.73767e-08
1.42377e-05
1.26074e-05
-7.85566e-09
1.26117e-05
-1.45792e-08
1.26169e-05
-1.88527e-08
1.26225e-05
-2.14376e-08
1.26283e-05
-2.29748e-08
1.26342e-05
-2.38146e-08
1.26399e-05
-2.41861e-08
1.26454e-05
-2.42546e-08
1.26507e-05
-2.41303e-08
1.26558e-05
-2.3883e-08
1.26606e-05
-2.35567e-08
1.26652e-05
-2.31796e-08
1.26695e-05
-2.27695e-08
1.26735e-05
-2.23376e-08
1.26773e-05
-2.18914e-08
1.26809e-05
-2.14356e-08
1.26842e-05
-2.09723e-08
-2.04981e-08
1.26873e-05
1.12327e-05
-1.0763e-08
1.12375e-05
-1.93195e-08
1.12428e-05
-2.42472e-08
1.12484e-05
-2.70276e-08
1.1254e-05
-2.85658e-08
1.12595e-05
-2.92785e-08
1.12648e-05
-2.94474e-08
1.12698e-05
-2.92767e-08
1.12746e-05
-2.88964e-08
1.12791e-05
-2.83868e-08
1.12833e-05
-2.77983e-08
1.12873e-05
-2.71631e-08
1.1291e-05
-2.65018e-08
1.12945e-05
-2.58278e-08
1.12978e-05
-2.51501e-08
1.13008e-05
-2.44752e-08
1.13036e-05
-2.38072e-08
-2.31459e-08
1.13063e-05
1.00083e-05
-1.44369e-08
1.00137e-05
-2.46955e-08
1.00193e-05
-2.98572e-08
1.00248e-05
-3.2545e-08
1.00301e-05
-3.38911e-08
1.00352e-05
-3.43355e-08
1.00399e-05
-3.4206e-08
1.00444e-05
-3.37366e-08
1.00486e-05
-3.30671e-08
1.00525e-05
-3.22803e-08
1.00561e-05
-3.14278e-08
1.00595e-05
-3.05418e-08
1.00626e-05
-2.96426e-08
1.00655e-05
-2.87433e-08
1.00682e-05
-2.78526e-08
1.00707e-05
-2.69778e-08
1.00731e-05
-2.61244e-08
-2.52966e-08
1.00752e-05
8.91787e-06
-1.92028e-08
8.92393e-06
-3.07557e-08
8.92963e-06
-3.55609e-08
8.93492e-06
-3.78359e-08
8.93983e-06
-3.87936e-08
8.94433e-06
-3.88381e-08
8.94846e-06
-3.83315e-08
8.95224e-06
-3.75225e-08
8.95572e-06
-3.65478e-08
8.95893e-06
-3.54848e-08
8.96188e-06
-3.43801e-08
8.9646e-06
-3.32625e-08
8.96711e-06
-3.21489e-08
8.96942e-06
-3.10495e-08
8.97153e-06
-2.99712e-08
8.97348e-06
-2.89198e-08
8.97526e-06
-2.79024e-08
-2.6928e-08
8.97689e-06
7.94687e-06
-2.5401e-08
7.95349e-06
-3.73778e-08
7.959e-06
-4.10722e-08
7.96379e-06
-4.26195e-08
7.96801e-06
-4.30224e-08
7.97175e-06
-4.25739e-08
7.97507e-06
-4.16499e-08
7.97804e-06
-4.04952e-08
7.98072e-06
-3.92297e-08
7.98316e-06
-3.7916e-08
7.98537e-06
-3.6591e-08
7.98738e-06
-3.52764e-08
7.98922e-06
-3.39838e-08
7.99089e-06
-3.27189e-08
7.9924e-06
-3.14845e-08
7.99377e-06
-3.02832e-08
7.99499e-06
-2.91218e-08
-2.80148e-08
7.99607e-06
7.08223e-06
-3.33013e-08
7.08903e-06
-4.41765e-08
7.09388e-06
-4.59214e-08
7.09776e-06
-4.65043e-08
7.10101e-06
-4.62682e-08
7.10374e-06
-4.5307e-08
7.10608e-06
-4.39837e-08
7.1081e-06
-4.25202e-08
7.10988e-06
-4.10071e-08
7.11145e-06
-3.94866e-08
7.11284e-06
-3.79834e-08
7.11408e-06
-3.65118e-08
7.11518e-06
-3.50781e-08
7.11614e-06
-3.36834e-08
7.11698e-06
-3.23253e-08
7.1177e-06
-3.10003e-08
7.11829e-06
-2.97104e-08
-2.84689e-08
7.11874e-06
6.31218e-06
-4.29672e-08
6.31833e-06
-5.03316e-08
6.32186e-06
-4.94455e-08
6.32438e-06
-4.90263e-08
6.32629e-06
-4.81829e-08
6.32774e-06
-4.67546e-08
6.32884e-06
-4.50832e-08
6.32968e-06
-4.33599e-08
6.33032e-06
-4.16442e-08
6.33079e-06
-3.99593e-08
6.33113e-06
-3.83193e-08
6.33135e-06
-3.67317e-08
6.33147e-06
-3.51976e-08
6.3315e-06
-3.37134e-08
6.33144e-06
-3.22709e-08
6.3313e-06
-3.08569e-08
6.33105e-06
-2.94587e-08
-2.80644e-08
6.33064e-06
5.62586e-06
-5.39286e-08
5.6297e-06
-5.41659e-08
5.63086e-06
-5.06115e-08
5.63119e-06
-4.93616e-08
5.63095e-06
-4.79422e-08
5.63028e-06
-4.60868e-08
5.62933e-06
-4.41246e-08
5.62817e-06
-4.22007e-08
5.62686e-06
-4.03404e-08
5.62545e-06
-3.85479e-08
5.62396e-06
-3.68268e-08
5.62241e-06
-3.51776e-08
5.62081e-06
-3.35972e-08
5.61917e-06
-3.20782e-08
5.61751e-06
-3.06079e-08
5.61582e-06
-2.91619e-08
5.61406e-06
-2.76993e-08
-2.60981e-08
5.61209e-06
5.01054e-06
-6.21575e-08
5.00697e-06
-5.0606e-08
5.00194e-06
-4.55745e-08
4.99619e-06
-4.36164e-08
4.98991e-06
-4.16641e-08
4.98336e-06
-3.9538e-08
4.9767e-06
-3.74605e-08
4.97e-06
-3.54999e-08
4.96331e-06
-3.36506e-08
4.95666e-06
-3.19022e-08
4.95009e-06
-3.02487e-08
4.94359e-06
-2.86844e-08
4.9372e-06
-2.7203e-08
4.93092e-06
-2.57965e-08
4.92476e-06
-2.44531e-08
4.91875e-06
-2.31476e-08
4.91287e-06
-2.18215e-08
-2.00342e-08
4.9068e-06
4.39439e-06
4.34378e-06
4.29821e-06
4.25459e-06
4.21293e-06
4.17339e-06
4.13593e-06
4.10043e-06
4.06678e-06
4.03488e-06
4.00463e-06
3.97595e-06
3.94874e-06
3.92295e-06
3.89849e-06
3.87535e-06
3.85352e-06
3.83349e-06
6.83968e-09
-6.83956e-09
1.58068e-08
-9.00654e-09
2.43858e-08
-8.60274e-09
3.13112e-08
-6.94022e-09
3.5978e-08
-4.67567e-09
3.81466e-08
-2.1737e-09
3.77621e-08
3.81528e-10
3.49082e-08
2.85164e-09
2.97535e-08
5.15197e-09
2.25062e-08
7.24353e-09
1.33451e-08
9.1558e-09
2.4243e-09
1.09134e-08
-1.01188e-08
1.25337e-08
-2.41232e-08
1.39938e-08
-3.9435e-08
1.53015e-08
-5.59248e-08
1.64807e-08
-7.34767e-08
1.75448e-08
-9.19827e-08
1.85012e-08
-1.11342e-07
1.93568e-08
-1.31462e-07
2.01191e-08
-1.52258e-07
2.07964e-08
-1.73655e-07
2.13977e-08
-1.95587e-07
2.19324e-08
-2.17998e-07
2.24096e-08
-2.40838e-07
2.28384e-08
-2.64068e-07
2.32267e-08
-2.87654e-07
2.35819e-08
-3.1157e-07
2.39106e-08
-3.35795e-07
2.42181e-08
-3.6031e-07
2.45092e-08
-3.85105e-07
2.47879e-08
-4.10168e-07
2.50573e-08
-4.35494e-07
2.53203e-08
-4.61078e-07
2.5579e-08
-4.86918e-07
2.5835e-08
-5.13011e-07
2.60892e-08
-5.39355e-07
2.63414e-08
-5.65948e-07
2.65904e-08
-5.92783e-07
2.68339e-08
-6.19852e-07
2.70694e-08
-6.47147e-07
2.72964e-08
-6.74661e-07
2.75183e-08
-7.02402e-07
2.77443e-08
-7.30391e-07
2.79938e-08
-7.58698e-07
2.83109e-08
-7.87507e-07
2.88133e-08
-8.16801e-07
2.92957e-08
-8.46431e-07
2.96315e-08
-8.76412e-07
2.99812e-08
-9.06769e-07
3.03552e-08
-9.3752e-07
3.0748e-08
-9.68678e-07
3.11546e-08
-1.00025e-06
3.15715e-08
-1.03225e-06
3.19959e-08
-1.06468e-06
3.24263e-08
-1.09754e-06
3.28613e-08
-1.13083e-06
3.32997e-08
-1.16457e-06
3.37405e-08
-1.19875e-06
3.41825e-08
-1.23338e-06
3.46246e-08
-1.26845e-06
3.50658e-08
-1.30396e-06
3.55052e-08
-1.3399e-06
3.5942e-08
-1.37628e-06
3.63748e-08
-1.41309e-06
3.68025e-08
-1.45031e-06
3.72239e-08
-1.48795e-06
3.76383e-08
-1.52599e-06
3.80446e-08
-1.56443e-06
3.84423e-08
-1.60326e-06
3.88308e-08
-1.64247e-06
3.92098e-08
-1.68206e-06
3.95791e-08
-1.722e-06
3.99384e-08
-1.7623e-06
4.02878e-08
-1.80293e-06
4.06275e-08
-1.84389e-06
4.09572e-08
-1.88517e-06
4.12761e-08
-1.92676e-06
4.15833e-08
-1.96864e-06
4.18783e-08
-2.0108e-06
4.21611e-08
-2.05324e-06
4.24327e-08
-2.09593e-06
4.26944e-08
-2.13888e-06
4.29476e-08
-2.18207e-06
4.31931e-08
-2.22551e-06
4.34318e-08
-2.26917e-06
4.36642e-08
-2.31307e-06
4.38911e-08
-2.35718e-06
4.41132e-08
-2.40151e-06
4.43317e-08
-2.44606e-06
4.45486e-08
-2.49082e-06
4.47659e-08
-2.5358e-06
4.49859e-08
-2.58101e-06
4.52104e-08
-2.62645e-06
4.54416e-08
-2.67214e-06
4.56823e-08
-2.71808e-06
4.59365e-08
-2.7643e-06
4.62084e-08
-2.8108e-06
4.65011e-08
-2.85762e-06
4.68167e-08
-2.90478e-06
4.71572e-08
-2.9523e-06
4.75245e-08
-3.00022e-06
4.79206e-08
-3.04856e-06
4.83468e-08
-3.09736e-06
4.8803e-08
-3.14665e-06
4.92879e-08
-3.19645e-06
4.97995e-08
-3.24678e-06
5.03339e-08
-3.29767e-06
5.08856e-08
-3.34912e-06
5.14473e-08
-3.40114e-06
5.20102e-08
-3.45371e-06
5.25643e-08
-3.5068e-06
5.30966e-08
-3.56039e-06
5.35899e-08
-3.61441e-06
5.40247e-08
-3.66879e-06
5.43822e-08
-3.72343e-06
5.46442e-08
-3.77822e-06
5.47905e-08
-3.83302e-06
5.47979e-08
-3.88766e-06
5.46411e-08
-3.94196e-06
5.4294e-08
-3.99569e-06
5.37284e-08
-4.0486e-06
5.29133e-08
-4.10042e-06
5.18163e-08
-4.15083e-06
5.04056e-08
-4.19948e-06
4.86481e-08
-4.24599e-06
4.6507e-08
-4.28994e-06
4.39457e-08
-4.33087e-06
4.09304e-08
-4.3683e-06
3.74289e-08
-4.40172e-06
3.34066e-08
-4.43055e-06
2.88287e-08
-4.45422e-06
2.36632e-08
-4.4721e-06
1.78819e-08
-4.48355e-06
1.14582e-08
-4.48787e-06
4.33291e-09
-4.48437e-06
-3.5014e-09
-4.47242e-06
-1.1959e-08
-4.45142e-06
-2.09983e-08
-4.42077e-06
-3.06375e-08
-4.37987e-06
-4.08839e-08
-4.32817e-06
-5.17066e-08
-4.26512e-06
-6.3064e-08
-4.1902e-06
-7.49212e-08
-4.10301e-06
-8.72205e-08
-4.00315e-06
-9.98783e-08
-3.89035e-06
-1.12798e-07
-3.76447e-06
-1.25872e-07
-3.62547e-06
-1.38999e-07
-3.47342e-06
-1.52041e-07
-3.30857e-06
-1.64841e-07
-3.13128e-06
-1.77271e-07
-2.94209e-06
-1.89194e-07
-2.74156e-06
-2.00511e-07
-2.53042e-06
-2.11138e-07
-2.30945e-06
-2.20973e-07
-2.07954e-06
-2.29904e-07
-1.84167e-06
-2.37876e-07
-1.59675e-06
-2.44933e-07
-1.34547e-06
-2.51289e-07
-1.08823e-06
-2.57245e-07
-8.25383e-07
-2.62851e-07
-5.57892e-07
-2.67508e-07
-2.84674e-07
-2.73218e-07
-7.42478e-09
-2.7727e-07
2.66101e-07
-2.73546e-07
5.31574e-07
-2.65469e-07
7.88611e-07
-2.57051e-07
1.03661e-06
-2.48001e-07
1.27455e-06
-2.37945e-07
1.5011e-06
-2.26582e-07
1.71481e-06
-2.13701e-07
1.9139e-06
-1.99119e-07
2.09671e-06
-1.82818e-07
2.2616e-06
-1.64881e-07
2.40699e-06
-1.45388e-07
2.53107e-06
-1.24069e-07
2.63091e-06
-9.98454e-08
2.6998e-06
-6.88851e-08
2.72239e-06
-2.25729e-08
8.42462e-08
2.63816e-06
6.94773e-09
-1.37504e-08
1.22715e-08
-1.42946e-08
1.52088e-08
-1.1521e-08
1.59516e-08
-7.67256e-09
1.46148e-08
-3.33303e-09
1.1248e-08
1.19594e-09
5.9453e-09
5.68591e-09
-1.17878e-09
9.97761e-09
-1.00146e-08
1.39914e-08
-2.04351e-08
1.76704e-08
-3.23041e-08
2.10344e-08
-4.54819e-08
2.41042e-08
-5.98227e-08
2.68903e-08
-7.52139e-08
2.94017e-08
-9.15575e-08
3.16617e-08
-1.08755e-07
3.36933e-08
-1.26713e-07
3.55169e-08
-1.4535e-07
3.71506e-08
-1.64594e-07
3.86112e-08
-1.8438e-07
3.9915e-08
-2.04653e-07
4.10785e-08
-2.25363e-07
4.21179e-08
-2.46469e-07
4.3049e-08
-2.67935e-07
4.3887e-08
-2.89731e-07
4.46461e-08
-3.11833e-07
4.53397e-08
-3.34221e-07
4.59795e-08
-3.5688e-07
4.65765e-08
-3.79796e-07
4.71401e-08
-4.02962e-07
4.76786e-08
-4.2637e-07
4.81992e-08
-4.50018e-07
4.8708e-08
-4.73904e-07
4.921e-08
-4.98029e-07
4.97093e-08
-5.22396e-07
5.02094e-08
-5.4701e-07
5.07129e-08
-5.71881e-07
5.1222e-08
-5.9702e-07
5.17383e-08
-6.22441e-07
5.22632e-08
-6.48163e-07
5.27985e-08
-6.7421e-07
5.33471e-08
-7.00604e-07
5.39133e-08
-7.27363e-07
5.45028e-08
-7.54494e-07
5.51249e-08
-7.81978e-07
5.57948e-08
-8.09689e-07
5.65262e-08
-8.37666e-07
5.72755e-08
-8.66038e-07
5.80072e-08
-8.94801e-07
5.87478e-08
-9.23952e-07
5.95082e-08
-9.53492e-07
6.02888e-08
-9.83427e-07
6.10876e-08
-1.01376e-06
6.19022e-08
-1.0445e-06
6.27303e-08
-1.07565e-06
6.35699e-08
-1.10721e-06
6.44186e-08
-1.13919e-06
6.52745e-08
-1.17159e-06
6.61352e-08
-1.2044e-06
6.69982e-08
-1.23764e-06
6.78614e-08
-1.2713e-06
6.87223e-08
-1.30537e-06
6.95793e-08
-1.33986e-06
7.04303e-08
-1.37477e-06
7.12737e-08
-1.41008e-06
7.2108e-08
-1.44579e-06
7.29317e-08
-1.4819e-06
7.37433e-08
-1.51841e-06
7.45418e-08
-1.55529e-06
7.53258e-08
-1.59256e-06
7.6094e-08
-1.63019e-06
7.68452e-08
-1.66819e-06
7.75788e-08
-1.70654e-06
7.82941e-08
-1.74524e-06
7.89912e-08
-1.78429e-06
7.96698e-08
-1.82366e-06
8.033e-08
-1.86336e-06
8.09718e-08
-1.90338e-06
8.15954e-08
-1.94371e-06
8.22014e-08
-1.98435e-06
8.27908e-08
-2.02528e-06
8.33647e-08
-2.06651e-06
8.39242e-08
-2.10803e-06
8.44705e-08
-2.14983e-06
8.50044e-08
-2.19192e-06
8.55274e-08
-2.23429e-06
8.6041e-08
-2.27694e-06
8.65473e-08
-2.31987e-06
8.70489e-08
-2.36309e-06
8.7549e-08
-2.40659e-06
8.8051e-08
-2.45039e-06
8.85585e-08
-2.49448e-06
8.90747e-08
-2.53887e-06
8.96029e-08
-2.58357e-06
9.01468e-08
-2.6286e-06
9.07109e-08
-2.67396e-06
9.13002e-08
-2.71967e-06
9.19194e-08
-2.76574e-06
9.25729e-08
-2.81218e-06
9.3265e-08
-2.85903e-06
9.40002e-08
-2.90629e-06
9.47825e-08
-2.95399e-06
9.56151e-08
-3.00215e-06
9.6499e-08
-3.05078e-06
9.74326e-08
-3.0999e-06
9.84123e-08
-3.14953e-06
9.94321e-08
-3.19968e-06
1.00484e-07
-3.25034e-06
1.01555e-07
-3.30152e-06
1.02632e-07
-3.3532e-06
1.03695e-07
-3.40535e-06
1.04722e-07
-3.45793e-06
1.05682e-07
-3.51089e-06
1.06545e-07
-3.56414e-06
1.07274e-07
-3.6176e-06
1.07834e-07
-3.67115e-06
1.08187e-07
-3.72465e-06
1.08289e-07
-3.77794e-06
1.08093e-07
-3.83085e-06
1.07548e-07
-3.88316e-06
1.066e-07
-3.93462e-06
1.05195e-07
-3.98498e-06
1.03271e-07
-4.03393e-06
1.00769e-07
-4.08115e-06
9.76252e-08
-4.12627e-06
9.37719e-08
-4.1689e-06
8.91384e-08
-4.20862e-06
8.36553e-08
-4.24494e-06
7.72554e-08
-4.27739e-06
6.98728e-08
-4.30543e-06
6.14426e-08
-4.3285e-06
5.19013e-08
-4.34603e-06
4.11857e-08
-4.35739e-06
2.9237e-08
-4.36197e-06
1.60149e-08
-4.35908e-06
1.43525e-09
-4.34813e-06
-1.44396e-08
-4.32862e-06
-3.14746e-08
-4.29996e-06
-4.96703e-08
-4.26159e-06
-6.90227e-08
-4.21295e-06
-8.95301e-08
-4.15348e-06
-1.11162e-07
-4.08269e-06
-1.33851e-07
-4.00007e-06
-1.57517e-07
-3.90521e-06
-1.82052e-07
-3.79778e-06
-2.07299e-07
-3.67752e-06
-2.3307e-07
-3.54426e-06
-2.59147e-07
-3.39797e-06
-2.85301e-07
-3.23874e-06
-3.11291e-07
-3.06678e-06
-3.36829e-07
-2.88243e-06
-3.61627e-07
-2.6862e-06
-3.85448e-07
-2.47865e-06
-4.08065e-07
-2.26048e-06
-4.29303e-07
-2.03242e-06
-4.49029e-07
-1.79525e-06
-4.67059e-07
-1.54974e-06
-4.83378e-07
-1.29653e-06
-4.98132e-07
-1.03612e-06
-5.11676e-07
-7.6871e-07
-5.24656e-07
-4.93693e-07
-5.37861e-07
-2.08977e-07
-5.52226e-07
7.98198e-08
-5.62002e-07
3.63018e-07
-5.60451e-07
6.39525e-07
-5.50052e-07
9.09827e-07
-5.35763e-07
1.17246e-06
-5.19672e-07
1.42583e-06
-5.01364e-07
1.66828e-06
-4.8037e-07
1.898e-06
-4.56297e-07
2.1132e-06
-4.28869e-07
2.31209e-06
-3.98005e-07
2.49314e-06
-3.6385e-07
2.65502e-06
-3.26766e-07
2.79664e-06
-2.87006e-07
2.91683e-06
-2.4426e-07
3.01382e-06
-1.96851e-07
3.08445e-06
-1.39529e-07
3.12229e-06
-6.04332e-08
7.62927e-08
3.13024e-06
2.94962e-09
-1.67273e-08
3.28463e-09
-1.46336e-08
1.33814e-09
-9.57543e-09
-2.55998e-09
-3.77526e-09
-8.13436e-09
2.24095e-09
-1.51386e-08
8.19952e-09
-2.33952e-08
1.39415e-08
-3.28084e-08
1.93889e-08
-4.33096e-08
2.44898e-08
-5.48576e-08
2.92151e-08
-6.73883e-08
3.35616e-08
-8.08252e-08
3.75376e-08
-9.50942e-08
4.1156e-08
-1.10129e-07
4.44345e-08
-1.25865e-07
4.7396e-08
-1.42238e-07
5.00651e-08
-1.59187e-07
5.24664e-08
-1.76659e-07
5.46238e-08
-1.94608e-07
5.65609e-08
-2.12992e-07
5.83003e-08
-2.31777e-07
5.9864e-08
-2.50932e-07
6.12734e-08
-2.70432e-07
6.25487e-08
-2.90255e-07
6.3709e-08
-3.10382e-07
6.47721e-08
-3.30798e-07
6.57542e-08
-3.5149e-07
6.66702e-08
-3.72449e-07
6.75332e-08
-3.93666e-07
6.83551e-08
-4.15136e-07
6.91462e-08
-4.36855e-07
6.99158e-08
-4.58821e-07
7.06718e-08
-4.81034e-07
7.14211e-08
-5.03496e-07
7.21697e-08
-5.2621e-07
7.29228e-08
-5.49182e-07
7.36848e-08
-5.7242e-07
7.44597e-08
-5.95931e-07
7.52508e-08
-6.19728e-07
7.6061e-08
-6.43821e-07
7.68934e-08
-6.68222e-07
7.7751e-08
-6.92944e-07
7.86371e-08
-7.17995e-07
7.9555e-08
-7.43377e-07
8.05081e-08
-7.6908e-07
8.1499e-08
-7.95079e-07
8.25255e-08
-8.21378e-07
8.35747e-08
-8.48011e-07
8.46405e-08
-8.74993e-07
8.57291e-08
-9.0233e-07
8.68437e-08
-9.30026e-07
8.79841e-08
-9.58088e-07
8.91483e-08
-9.8652e-07
9.03334e-08
-1.01533e-06
9.15367e-08
-1.04451e-06
9.27553e-08
-1.07408e-06
9.39862e-08
-1.10403e-06
9.52265e-08
-1.13437e-06
9.64732e-08
-1.1651e-06
9.77232e-08
-1.19621e-06
9.89738e-08
-1.22771e-06
1.00222e-07
-1.2596e-06
1.01465e-07
-1.29187e-06
1.027e-07
-1.32452e-06
1.03924e-07
-1.35755e-06
1.05136e-07
-1.39095e-06
1.06332e-07
-1.42472e-06
1.07511e-07
-1.45885e-06
1.08671e-07
-1.49333e-06
1.09812e-07
-1.52817e-06
1.1093e-07
-1.56336e-06
1.12026e-07
-1.59888e-06
1.13099e-07
-1.63474e-06
1.14147e-07
-1.67092e-06
1.15172e-07
-1.70742e-06
1.16173e-07
-1.74424e-06
1.17149e-07
-1.78137e-06
1.18102e-07
-1.81881e-06
1.19031e-07
-1.85655e-06
1.19938e-07
-1.89459e-06
1.20824e-07
-1.93292e-06
1.21692e-07
-1.97154e-06
1.22544e-07
-2.01045e-06
1.23381e-07
-2.04965e-06
1.24206e-07
-2.08914e-06
1.2502e-07
-2.12893e-06
1.25827e-07
-2.16901e-06
1.2663e-07
-2.20939e-06
1.27431e-07
-2.25007e-06
1.28236e-07
-2.29107e-06
1.29047e-07
-2.33238e-06
1.29871e-07
-2.37402e-06
1.3071e-07
-2.41599e-06
1.31571e-07
-2.4583e-06
1.32458e-07
-2.50097e-06
1.33377e-07
-2.54401e-06
1.34334e-07
-2.58742e-06
1.35335e-07
-2.63123e-06
1.36383e-07
-2.67545e-06
1.37485e-07
-2.7201e-06
1.38646e-07
-2.76518e-06
1.39868e-07
-2.81072e-06
1.41156e-07
-2.85673e-06
1.42509e-07
-2.90322e-06
1.43925e-07
-2.95021e-06
1.45397e-07
-2.99769e-06
1.46917e-07
-3.04568e-06
1.48472e-07
-3.09418e-06
1.50046e-07
-3.14316e-06
1.51614e-07
-3.19261e-06
1.53148e-07
-3.2425e-06
1.5461e-07
-3.29277e-06
1.55959e-07
-3.34337e-06
1.57146e-07
-3.39422e-06
1.5812e-07
-3.44521e-06
1.58827e-07
-3.49624e-06
1.59209e-07
-3.54715e-06
1.59199e-07
-3.59778e-06
1.58727e-07
-3.64795e-06
1.57718e-07
-3.69745e-06
1.56093e-07
-3.74602e-06
1.53769e-07
-3.79341e-06
1.50658e-07
-3.83931e-06
1.46669e-07
-3.88339e-06
1.41708e-07
-3.9253e-06
1.35673e-07
-3.96462e-06
1.28463e-07
-4.00095e-06
1.19973e-07
-4.0338e-06
1.10104e-07
-4.06268e-06
9.87568e-08
-4.08708e-06
8.58366e-08
-4.10642e-06
7.1252e-08
-4.12014e-06
5.49094e-08
-4.12762e-06
3.67203e-08
-4.12824e-06
1.66289e-08
-4.12142e-06
-5.38703e-09
-4.10664e-06
-2.9211e-08
-4.08338e-06
-5.47295e-08
-4.05109e-06
-8.19588e-08
-4.00922e-06
-1.10897e-07
-3.95723e-06
-1.41527e-07
-3.8946e-06
-1.73806e-07
-3.82082e-06
-2.07646e-07
-3.73542e-06
-2.42922e-07
-3.638e-06
-2.79474e-07
-3.52821e-06
-3.17086e-07
-3.4058e-06
-3.5548e-07
-3.27061e-06
-3.94331e-07
-3.12261e-06
-4.33297e-07
-2.96186e-06
-4.72034e-07
-2.78856e-06
-5.10124e-07
-2.60304e-06
-5.47136e-07
-2.40575e-06
-5.82744e-07
-2.19721e-06
-6.16608e-07
-1.97807e-06
-6.48444e-07
-1.74896e-06
-6.78139e-07
-1.51055e-06
-7.05478e-07
-1.26337e-06
-7.30554e-07
-1.0078e-06
-7.53707e-07
-7.43997e-07
-7.75482e-07
-4.71651e-07
-7.97009e-07
-1.90013e-07
-8.19499e-07
9.46282e-08
-8.36873e-07
3.74432e-07
-8.41809e-07
6.49206e-07
-8.35224e-07
9.20088e-07
-8.20939e-07
1.18606e-06
-8.0174e-07
1.44499e-06
-7.78603e-07
1.69479e-06
-7.51168e-07
1.93334e-06
-7.18925e-07
2.1585e-06
-6.81472e-07
2.36824e-06
-6.38601e-07
2.56069e-06
-5.90452e-07
2.73437e-06
-5.37534e-07
2.88822e-06
-4.80607e-07
3.02151e-06
-4.203e-07
3.13375e-06
-3.56485e-07
3.22433e-06
-2.8743e-07
3.29273e-06
-2.07923e-07
3.3394e-06
-1.07097e-07
3.91797e-08
3.37652e-06
-1.7578e-09
-1.49627e-08
-6.08163e-09
-1.03077e-08
-1.21399e-08
-3.51607e-09
-1.94863e-08
3.57119e-09
-2.78106e-08
1.05655e-08
-3.6938e-08
1.73274e-08
-4.67948e-08
2.37989e-08
-5.73394e-08
2.99345e-08
-6.85482e-08
3.56999e-08
-8.04058e-08
4.10741e-08
-9.28916e-08
4.60491e-08
-1.0598e-07
5.06274e-08
-1.19641e-07
5.48191e-08
-1.33846e-07
5.86409e-08
-1.48563e-07
6.21138e-08
-1.63758e-07
6.52618e-08
-1.79401e-07
6.81109e-08
-1.95463e-07
7.06872e-08
-2.11917e-07
7.30171e-08
-2.2874e-07
7.51263e-08
-2.45913e-07
7.70396e-08
-2.63418e-07
7.8781e-08
-2.8124e-07
8.03728e-08
-2.99366e-07
8.18361e-08
-3.17783e-07
8.31903e-08
-3.36482e-07
8.44535e-08
-3.55453e-07
8.56417e-08
-3.74691e-07
8.67696e-08
-3.94187e-07
8.78505e-08
-4.13938e-07
8.8896e-08
-4.33941e-07
8.99168e-08
-4.54191e-07
9.09219e-08
-4.7469e-07
9.19198e-08
-4.95437e-07
9.29175e-08
-5.16435e-07
9.39214e-08
-5.37686e-07
9.49373e-08
-5.59195e-07
9.597e-08
-5.80966e-07
9.70238e-08
-6.03007e-07
9.81024e-08
-6.25322e-07
9.92091e-08
-6.47917e-07
1.00346e-07
-6.70796e-07
1.01517e-07
-6.93962e-07
1.02721e-07
-7.17415e-07
1.03962e-07
-7.41153e-07
1.05238e-07
-7.65175e-07
1.06548e-07
-7.89488e-07
1.07888e-07
-8.14105e-07
1.09258e-07
-8.39034e-07
1.10658e-07
-8.64282e-07
1.1209e-07
-8.89852e-07
1.13552e-07
-9.15748e-07
1.15042e-07
-9.41974e-07
1.16557e-07
-9.68532e-07
1.18094e-07
-9.95427e-07
1.1965e-07
-1.02266e-06
1.2122e-07
-1.05023e-06
1.22801e-07
-1.07815e-06
1.24389e-07
-1.10641e-06
1.25982e-07
-1.13501e-06
1.27574e-07
-1.16395e-06
1.29162e-07
-1.19323e-06
1.30744e-07
-1.22285e-06
1.32316e-07
-1.2528e-06
1.33875e-07
-1.28309e-06
1.35417e-07
-1.3137e-06
1.3694e-07
-1.34463e-06
1.38442e-07
-1.37588e-06
1.3992e-07
-1.40744e-06
1.41373e-07
-1.43931e-06
1.42799e-07
-1.47148e-06
1.44196e-07
-1.50395e-06
1.45564e-07
-1.5367e-06
1.46904e-07
-1.56974e-06
1.48214e-07
-1.60307e-06
1.49495e-07
-1.63667e-06
1.50747e-07
-1.67054e-06
1.51971e-07
-1.70468e-06
1.53169e-07
-1.73909e-06
1.54342e-07
-1.77376e-06
1.55492e-07
-1.80869e-06
1.56623e-07
-1.84388e-06
1.57736e-07
-1.87933e-06
1.58836e-07
-1.91505e-06
1.59924e-07
-1.95103e-06
1.61006e-07
-1.98729e-06
1.62084e-07
-2.02382e-06
1.63164e-07
-2.06064e-06
1.6425e-07
-2.09775e-06
1.65346e-07
-2.13516e-06
1.66459e-07
-2.17288e-06
1.67593e-07
-2.21093e-06
1.68754e-07
-2.2493e-06
1.69948e-07
-2.28803e-06
1.71182e-07
-2.32711e-06
1.72462e-07
-2.36657e-06
1.73794e-07
-2.40642e-06
1.75186e-07
-2.44668e-06
1.76641e-07
-2.48737e-06
1.78166e-07
-2.52849e-06
1.79765e-07
-2.57006e-06
1.81442e-07
-2.6121e-06
1.83198e-07
-2.65462e-06
1.85033e-07
-2.69764e-06
1.86941e-07
-2.74115e-06
1.88914e-07
-2.78518e-06
1.90941e-07
-2.82971e-06
1.93006e-07
-2.87475e-06
1.95083e-07
-2.92028e-06
1.97143e-07
-2.96628e-06
1.99146e-07
-3.01271e-06
2.01043e-07
-3.05953e-06
2.02778e-07
-3.10667e-06
2.04288e-07
-3.15406e-06
2.05508e-07