/*--------------------------------*- C++ -*----------------------------------*\
| =========                 |                                                 |
| \\      /  F ield         | OpenFOAM: The Open Source CFD Toolbox           |
|  \\    /   O peration     | Version:  1.4.2                                 |
|   \\  /    A nd           | Web:      http://www.openfoam.org               |
|    \\/     M anipulation  |                                                 |
\*---------------------------------------------------------------------------*/
FoamFile
{
    version     2.0;
    format      ascii;
    class       volVectorField;
    object      U;
    location    "600";
}
// * * * * * * * * * * * * * * * * * * * * * * * * * * * * * * * * * * * * * //

dimensions      [0 1 -1 0 0 0 0];

internalField   nonuniform List<vector> 
12225
(
(9.7763 0.0380813 0)
(9.58164 0.0388049 0)
(9.36736 0.0370227 0)
(9.1617 0.0361585 0)
(8.97085 0.0352125 0)
(8.79267 0.0340415 0)
(8.62598 0.0327717 0)
(8.47046 0.0314682 0)
(8.32578 0.0301438 0)
(8.19149 0.0288041 0)
(8.06712 0.0274526 0)
(7.95223 0.0260892 0)
(7.84647 0.024707 0)
(7.74953 0.0232863 0)
(7.66132 0.0217807 0)
(7.58202 0.0200708 0)
(7.51332 0.0178997 0)
(7.44864 0.00481995 0)
(10.004 0.0585765 0)
(10.0077 0.0555287 0)
(9.98305 0.0518623 0)
(9.95106 0.0514317 0)
(9.91824 0.0511517 0)
(9.8841 0.0504921 0)
(9.84865 0.0496555 0)
(9.81246 0.0487331 0)
(9.77601 0.0477243 0)
(9.73965 0.0466196 0)
(9.70367 0.0454135 0)
(9.66837 0.0440909 0)
(9.63408 0.0426199 0)
(9.60118 0.0409334 0)
(9.57016 0.0388882 0)
(9.5418 0.0361475 0)
(9.51765 0.0318788 0)
(9.49577 0.0222877 0)
(10.0174 0.0524308 0)
(10.037 0.0526754 0)
(10.0383 0.051248 0)
(10.0338 0.0521942 0)
(10.0285 0.052818 0)
(10.0222 0.0528031 0)
(10.0148 0.0524815 0)
(10.0068 0.0519952 0)
(9.99828 0.0513639 0)
(9.98952 0.0505833 0)
(9.98062 0.0496476 0)
(9.97172 0.0485304 0)
(9.96298 0.0471771 0)
(9.95461 0.0454778 0)
(9.94688 0.0432153 0)
(9.94007 0.0399358 0)
(9.93449 0.0346175 0)
(9.92684 0.0247249 0)
(10.0158 0.0449577 0)
(10.0375 0.0501364 0)
(10.0459 0.0506691 0)
(10.0489 0.0521804 0)
(10.0509 0.0531551 0)
(10.0521 0.0534479 0)
(10.0524 0.0533764 0)
(10.0522 0.0530849 0)
(10.0517 0.0526055 0)
(10.051 0.0519395 0)
(10.0502 0.0510794 0)
(10.0495 0.0499921 0)
(10.0488 0.0486102 0)
(10.0485 0.0468068 0)
(10.0484 0.0443537 0)
(10.0488 0.0408434 0)
(10.0493 0.0356107 0)
(10.0477 0.0277427 0)
(10.0125 0.0370878 0)
(10.0331 0.0461611 0)
(10.0446 0.0485938 0)
(10.0509 0.050711 0)
(10.056 0.0520177 0)
(10.0602 0.052551 0)
(10.0637 0.0526408 0)
(10.0666 0.0524489 0)
(10.0692 0.0520241 0)
(10.0716 0.051375 0)
(10.0739 0.0504944 0)
(10.0761 0.0493475 0)
(10.0785 0.0478641 0)
(10.0809 0.0459206 0)
(10.0835 0.0433158 0)
(10.0861 0.0397433 0)
(10.0884 0.0348338 0)
(10.089 0.0283612 0)
(10.0094 0.0302418 0)
(10.0272 0.0413991 0)
(10.0399 0.0454557 0)
(10.0483 0.048248 0)
(10.0552 0.0499487 0)
(10.0611 0.0507595 0)
(10.0662 0.051028 0)
(10.0708 0.0509374 0)
(10.075 0.0505599 0)
(10.0789 0.0499187 0)
(10.0827 0.0490125 0)
(10.0865 0.0478096 0)
(10.0902 0.0462457 0)
(10.0938 0.0442131 0)
(10.0975 0.0415547 0)
(10.1009 0.0380684 0)
(10.1038 0.0335885 0)
(10.1054 0.0281931 0)
(10.0067 0.0244873 0)
(10.0215 0.0364033 0)
(10.0341 0.0416148 0)
(10.0434 0.0449758 0)
(10.0514 0.0470691 0)
(10.0584 0.0481797 0)
(10.0646 0.048652 0)
(10.0703 0.0486854 0)
(10.0755 0.0483726 0)
(10.0804 0.0477523 0)
(10.0851 0.0468322 0)
(10.0897 0.0455899 0)
(10.0941 0.0439739 0)
(10.0984 0.0419023 0)
(10.1025 0.0392667 0)
(10.1062 0.0359536 0)
(10.1094 0.0319217 0)
(10.1116 0.0273552 0)
(10.005 0.0203694 0)
(10.0173 0.0322303 0)
(10.0291 0.0380445 0)
(10.0385 0.0417612 0)
(10.0469 0.0441176 0)
(10.0544 0.0454436 0)
(10.0613 0.0460769 0)
(10.0675 0.0462199 0)
(10.0733 0.0459742 0)
(10.0788 0.0453875 0)
(10.084 0.0444753 0)
(10.089 0.0432251 0)
(10.0938 0.0416001 0)
(10.0984 0.0395428 0)
(10.1027 0.0369846 0)
(10.1066 0.0338699 0)
(10.1099 0.0302177 0)
(10.1124 0.0262291 0)
(10.0038 0.017217 0)
(10.0141 0.0286491 0)
(10.0249 0.0347584 0)
(10.0342 0.0387032 0)
(10.0426 0.0412415 0)
(10.0503 0.0427266 0)
(10.0574 0.0434845 0)
(10.064 0.0437155 0)
(10.0702 0.043527 0)
(10.076 0.0429739 0)
(10.0816 0.0420788 0)
(10.0868 0.0408381 0)
(10.0919 0.0392284 0)
(10.0966 0.0372126 0)
(10.1011 0.0347532 0)
(10.1051 0.0318335 0)
(10.1085 0.0285046 0)
(10.1112 0.0249612 0)
(10.0029 0.0143639 0)
(10.0112 0.0250089 0)
(10.0208 0.0311784 0)
(10.0296 0.0352304 0)
(10.0379 0.0378864 0)
(10.0456 0.0394942 0)
(10.0528 0.0403566 0)
(10.0596 0.040667 0)
(10.0659 0.0405348 0)
(10.072 0.0400205 0)
(10.0777 0.0391531 0)
(10.0832 0.0379389 0)
(10.0884 0.0363687 0)
(10.0932 0.0344262 0)
(10.0977 0.0321002 0)
(10.1018 0.0294036 0)
(10.1053 0.0264033 0)
(10.1082 0.0232777 0)
(10.0021 0.0118082 0)
(10.0088 0.0213944 0)
(10.0171 0.027388 0)
(10.0252 0.0314017 0)
(10.033 0.0340837 0)
(10.0405 0.0357553 0)
(10.0476 0.0366844 0)
(10.0544 0.0370517 0)
(10.0608 0.0369654 0)
(10.0669 0.036489 0)
(10.0727 0.0356577 0)
(10.0783 0.0344873 0)
(10.0835 0.0329824 0)
(10.0884 0.0311449 0)
(10.0929 0.0289848 0)
(10.0969 0.0265336 0)
(10.1004 0.023863 0)
(10.1035 0.021128 0)
(10.0015 0.00954612 0)
(10.0068 0.0178821 0)
(10.0138 0.0234682 0)
(10.0212 0.0272916 0)
(10.0284 0.0298913 0)
(10.0355 0.0315492 0)
(10.0423 0.032492 0)
(10.0489 0.0328815 0)
(10.0552 0.0328211 0)
(10.0612 0.032375 0)
(10.0669 0.0315833 0)
(10.0724 0.0304702 0)
(10.0775 0.0290525 0)
(10.0823 0.0273464 0)
(10.0867 0.0253765 0)
(10.0907 0.0231838 0)
(10.0943 0.0208364 0)
(10.0974 0.0184631 0)
(10.0011 0.0075545 0)
(10.0052 0.014527 0)
(10.0111 0.0194924 0)
(10.0176 0.0229732 0)
(10.0241 0.0253744 0)
(10.0307 0.0269299 0)
(10.0371 0.0278228 0)
(10.0434 0.0281913 0)
(10.0494 0.0281297 0)
(10.0552 0.0277008 0)
(10.0607 0.0269474 0)
(10.066 0.0259006 0)
(10.071 0.0245857 0)
(10.0756 0.0230289 0)
(10.0799 0.0212623 0)
(10.0838 0.0193297 0)
(10.0872 0.0172905 0)
(10.0904 0.0152486 0)
(10.0009 0.00579001 0)
(10.0041 0.0113515 0)
(10.0089 0.0155164 0)
(10.0145 0.0185065 0)
(10.0204 0.0205916 0)
(10.0264 0.0219511 0)
(10.0324 0.022725 0)
(10.0382 0.0230247 0)
(10.0439 0.0229314 0)
(10.0493 0.0225035 0)
(10.0546 0.0217841 0)
(10.0596 0.0208075 0)
(10.0643 0.019604 0)
(10.0687 0.0182046 0)
(10.0728 0.0166437 0)
(10.0765 0.0149621 0)
(10.0799 0.0132092 0)
(10.083 0.0114665 0)
(10.0007 0.00419838 0)
(10.0032 0.00834289 0)
(10.0073 0.0115669 0)
(10.0121 0.0139285 0)
(10.0173 0.0155824 0)
(10.0227 0.0166518 0)
(10.0282 0.0172358 0)
(10.0336 0.0174171 0)
(10.0389 0.0172605 0)
(10.044 0.016816 0)
(10.0489 0.0161236 0)
(10.0536 0.015217 0)
(10.058 0.0141272 0)
(10.0621 0.0128852 0)
(10.066 0.0115231 0)
(10.0695 0.010076 0)
(10.0728 0.00858326 0)
(10.0758 0.00710777 0)
(10.0005 0.00271998 0)
(10.0026 0.005452 0)
(10.006 0.00762856 0)
(10.0103 0.00923807 0)
(10.0149 0.0103518 0)
(10.0198 0.01104 0)
(10.0248 0.0113637 0)
(10.0298 0.0113764 0)
(10.0347 0.0111238 0)
(10.0394 0.0106438 0)
(10.044 0.00996884 0)
(10.0483 0.00912792 0)
(10.0525 0.00814848 0)
(10.0563 0.00705742 0)
(10.06 0.00588182 0)
(10.0633 0.00464951 0)
(10.0665 0.00339045 0)
(10.0694 0.00215238 0)
(10.0005 0.00128907 0)
(10.0023 0.00259314 0)
(10.0053 0.00363406 0)
(10.009 0.00438357 0)
(10.0133 0.00485765 0)
(10.0177 0.00508068 0)
(10.0223 0.00507766 0)
(10.0269 0.00487353 0)
(10.0315 0.0044921 0)
(10.0359 0.00395563 0)
(10.0402 0.00328509 0)
(10.0443 0.00250068 0)
(10.0481 0.00162246 0)
(10.0518 0.000670395 0)
(10.0552 -0.000335648 0)
(10.0584 -0.00137566 0)
(10.0614 -0.00242813 0)
(10.0642 -0.003457 0)
(10.0004 -9.50871e-05 0)
(10.0021 -0.000197804 0)
(10.005 -0.000306303 0)
(10.0085 -0.00044653 0)
(10.0125 -0.000643979 0)
(10.0168 -0.000915402 0)
(10.0212 -0.00126957 0)
(10.0256 -0.0017096 0)
(10.0299 -0.00223427 0)
(10.0341 -0.00283891 0)
(10.0381 -0.0035161 0)
(10.042 -0.00425633 0)
(10.0457 -0.00504887 0)
(10.0492 -0.00588205 0)
(10.0525 -0.00674375 0)
(10.0556 -0.00762137 0)
(10.0585 -0.00850057 0)
(10.0612 -0.00935498 0)
(10.0004 -0.00141049 0)
(10.0022 -0.00283527 0)
(10.0052 -0.00400507 0)
(10.0088 -0.00495321 0)
(10.0129 -0.00575235 0)
(10.0171 -0.00646115 0)
(10.0214 -0.00712135 0)
(10.0257 -0.00776324 0)
(10.03 -0.00840747 0)
(10.0341 -0.00906636 0)
(10.038 -0.00974574 0)
(10.0418 -0.0104468 0)
(10.0454 -0.0111674 0)
(10.0488 -0.0119034 0)
(10.052 -0.012649 0)
(10.055 -0.0133975 0)
(10.0579 -0.0141399 0)
(10.0606 -0.0148569 0)
(10.0005 -0.00271689 0)
(10.0026 -0.00539684 0)
(10.0059 -0.00750903 0)
(10.0098 -0.00913615 0)
(10.0141 -0.0104221 0)
(10.0184 -0.0114722 0)
(10.0229 -0.0123613 0)
(10.0272 -0.0131462 0)
(10.0315 -0.0138678 0)
(10.0356 -0.0145532 0)
(10.0395 -0.0152194 0)
(10.0433 -0.0158762 0)
(10.0468 -0.0165287 0)
(10.0502 -0.0171784 0)
(10.0533 -0.0178248 0)
(10.0563 -0.0184657 0)
(10.0591 -0.0190961 0)
(10.0617 -0.0197026 0)
(10.0007 -0.00413107 0)
(10.0032 -0.00806228 0)
(10.0071 -0.0110049 0)
(10.0115 -0.0131782 0)
(10.0161 -0.0148329 0)
(10.0208 -0.0161246 0)
(10.0254 -0.0171611 0)
(10.0298 -0.0180256 0)
(10.0341 -0.0187772 0)
(10.0383 -0.0194553 0)
(10.0422 -0.0200855 0)
(10.0459 -0.0206844 0)
(10.0494 -0.0212623 0)
(10.0528 -0.0218252 0)
(10.0559 -0.0223764 0)
(10.0588 -0.0229174 0)
(10.0615 -0.0234467 0)
(10.0641 -0.0239557 0)
(10.0009 -0.00577906 0)
(10.0043 -0.01098 0)
(10.009 -0.0146108 0)
(10.014 -0.0171789 0)
(10.0191 -0.0190763 0)
(10.024 -0.0205034 0)
(10.0288 -0.0216011 0)
(10.0334 -0.0224779 0)
(10.0377 -0.0232084 0)
(10.0419 -0.0238411 0)
(10.0458 -0.0244078 0)
(10.0494 -0.0249295 0)
(10.0529 -0.0254198 0)
(10.0561 -0.0258877 0)
(10.0591 -0.0263394 0)
(10.0619 -0.0267792 0)
(10.0645 -0.0272087 0)
(10.067 -0.0276243 0)
(10.0014 -0.00781374 0)
(10.0059 -0.0142708 0)
(10.0117 -0.0183784 0)
(10.0174 -0.0211611 0)
(10.0228 -0.0231617 0)
(10.028 -0.0246095 0)
(10.033 -0.0256769 0)
(10.0376 -0.0264963 0)
(10.0419 -0.0271534 0)
(10.0459 -0.0277019 0)
(10.0497 -0.0281769 0)
(10.0532 -0.0286013 0)
(10.0564 -0.0289903 0)
(10.0595 -0.029354 0)
(10.0623 -0.0297 0)
(10.0649 -0.0300344 0)
(10.0673 -0.030362 0)
(10.0696 -0.0306847 0)
(10.0021 -0.0104232 0)
(10.0083 -0.0180109 0)
(10.0153 -0.0222816 0)
(10.0216 -0.0250641 0)
(10.0273 -0.0270141 0)
(10.0326 -0.0283618 0)
(10.0374 -0.0293092 0)
(10.0418 -0.0300072 0)
(10.0459 -0.030546 0)
(10.0497 -0.0309791 0)
(10.0531 -0.031341 0)
(10.0563 -0.031654 0)
(10.0592 -0.0319326 0)
(10.0619 -0.0321863 0)
(10.0644 -0.0324223 0)
(10.0667 -0.0326475 0)
(10.0688 -0.0328697 0)
(10.0707 -0.0330975 0)
(10.0033 -0.0138292 0)
(10.0117 -0.0221922 0)
(10.0198 -0.0261936 0)
(10.0263 -0.0287392 0)
(10.0319 -0.0304854 0)
(10.0369 -0.0316237 0)
(10.0413 -0.0323765 0)
(10.0453 -0.0329035 0)
(10.0488 -0.0332916 0)
(10.052 -0.0335898 0)
(10.0549 -0.0338288 0)
(10.0576 -0.0340278 0)
(10.06 -0.0341983 0)
(10.0622 -0.034347 0)
(10.0642 -0.0344787 0)
(10.066 -0.0345982 0)
(10.0677 -0.0347151 0)
(10.0692 -0.0348461 0)
(10.0051 -0.0182883 0)
(10.0159 -0.0266445 0)
(10.0247 -0.0298444 0)
(10.0307 -0.0319325 0)
(10.0356 -0.0333427 0)
(10.0398 -0.0341881 0)
(10.0433 -0.0347022 0)
(10.0464 -0.0350407 0)
(10.0491 -0.0352754 0)
(10.0514 -0.0354434 0)
(10.0535 -0.0355679 0)
(10.0554 -0.0356631 0)
(10.057 -0.0357364 0)
(10.0585 -0.0357904 0)
(10.0597 -0.0358254 0)
(10.0608 -0.0358413 0)
(10.0618 -0.0358447 0)
(10.0625 -0.0358572 0)
(10.0075 -0.0241199 0)
(10.0207 -0.0310129 0)
(10.0288 -0.0327983 0)
(10.0331 -0.0342932 0)
(10.0364 -0.0353322 0)
(10.039 -0.0358788 0)
(10.041 -0.0361634 0)
(10.0425 -0.036329 0)
(10.0437 -0.0364278 0)
(10.0445 -0.0364824 0)
(10.0452 -0.0365074 0)
(10.0456 -0.036512 0)
(10.0459 -0.0364998 0)
(10.046 -0.0364699 0)
(10.046 -0.0364171 0)
(10.0458 -0.0363323 0)
(10.0455 -0.0362108 0)
(10.045 -0.0360614 0)
(10.0101 -0.0307423 0)
(10.0238 -0.0344003 0)
(10.0287 -0.0343505 0)
(10.0292 -0.0352196 0)
(10.029 -0.0359157 0)
(10.0281 -0.036197 0)
(10.0267 -0.0362746 0)
(10.0248 -0.0362753 0)
(10.0226 -0.0362348 0)
(10.0201 -0.0361661 0)
(10.0175 -0.0360795 0)
(10.0148 -0.0359813 0)
(10.012 -0.0358731 0)
(10.0091 -0.0357515 0)
(10.0062 -0.0356059 0)
(10.0032 -0.0354144 0)
(10.0001 -0.0351426 0)
(9.99678 -0.0347268 0)
(10.0062 -0.036406 0)
(10.0142 -0.0379428 0)
(10.0067 -0.0361055 0)
(9.99427 -0.0359658 0)
(9.98166 -0.0359861 0)
(9.96886 -0.0357765 0)
(9.95567 -0.0354773 0)
(9.94227 -0.035175 0)
(9.92885 -0.0348819 0)
(9.91551 -0.0345952 0)
(9.90228 -0.0343145 0)
(9.88921 -0.0340393 0)
(9.87632 -0.0337674 0)
(9.86364 -0.0334932 0)
(9.85121 -0.0332047 0)
(9.83903 -0.032872 0)
(9.82716 -0.0324266 0)
(9.81504 -0.0314823 0)
(9.89292 -0.0248303 0)
(9.80338 -0.0270745 0)
(9.69908 -0.0264858 0)
(9.59611 -0.0263358 0)
(9.49961 -0.0261425 0)
(9.40865 -0.0257958 0)
(9.32237 -0.025388 0)
(9.24051 -0.0249731 0)
(9.16293 -0.0245635 0)
(9.0894 -0.0241608 0)
(9.01968 -0.0237655 0)
(8.95358 -0.0233779 0)
(8.89089 -0.022997 0)
(8.83143 -0.0226206 0)
(8.77506 -0.0222435 0)
(8.72164 -0.0218498 0)
(8.67126 -0.0213925 0)
(8.6224 -0.0205136 0)
(0.00382213 -0.00724758 0)
(0.00989566 -0.0108359 0)
(0.0179351 -0.011426 0)
(0.0250545 -0.00996785 0)
(0.030323 -0.00744927 0)
(0.0334329 -0.00452091 0)
(0.0342927 -0.0015226 -2.44146e-19)
(0.0328294 0.00138358 2.35023e-19)
(0.0292572 0.0040861 0)
(0.0237457 0.00658026 2.27509e-19)
(0.0164768 0.00892305 0)
(0.00764052 0.0111498 0)
(-0.00289783 0.0132394 0)
(-0.0147083 0.0150218 -2.20963e-19)
(-0.0277359 0.0165366 0)
(-0.0418989 0.0178545 0)
(-0.0570719 0.0190052 1.82747e-19)
(-0.0731546 0.020003 0)
(-0.0900566 0.02086 0)
(-0.107694 0.021589 0)
(-0.125989 0.0222038 -1.43263e-19)
(-0.144871 0.0227186 0)
(-0.16428 0.0231473 -1.27976e-19)
(-0.184161 0.023503 0)
(-0.204468 0.0237977 0)
(-0.225163 0.0240422 -1.09489e-19)
(-0.246214 0.0242459 0)
(-0.267595 0.0244169 9.95318e-20)
(-0.289286 0.0245619 0)
(-0.31127 0.0246865 -9.10631e-20)
(-0.333535 0.0247949 0)
(-0.356074 0.0248899 0)
(-0.378879 0.024973 0)
(-0.401948 0.025044 0)
(-0.425279 0.0251012 0)
(-0.448869 0.0251404 7.20675e-20)
(-0.472717 0.0251551 0)
(-0.496821 0.0251369 -1.34529e-19)
(-0.521182 0.0250771 0)
(-0.545798 0.0249689 1.25999e-19)
(-0.570653 0.0248102 0)
(-0.59572 0.024606 0)
(-0.620984 0.02438 -1.14683e-19)
(-0.646487 0.0242093 0)
(-0.672341 0.0242914 -1.0765e-19)
(-0.698629 0.025019 1.04287e-19)
(-0.725355 0.0256757 0)
(-0.752512 0.0258155 9.86645e-20)
(-0.779999 0.0259284 9.6131e-20)
(-0.807853 0.0260624 0)
(-0.836096 0.0262121 0)
(-0.864743 0.026371 0)
(-0.893807 0.0265351 0)
(-0.923298 0.0267018 0)
(-0.953224 0.0268697 -8.30359e-20)
(-0.98359 0.0270381 0)
(-1.0144 0.0272062 7.93338e-20)
(-1.04566 0.0273733 0)
(-1.07737 0.0275386 0)
(-1.10954 0.0277012 -7.42832e-20)
(-1.14216 0.0278601 0)
(-1.17524 0.0280145 7.1213e-20)
(-1.20877 0.0281636 0)
(-1.24276 0.0283067 0)
(-1.2772 0.0284434 0)
(-1.31209 0.0285731 -6.56893e-20)
(-1.34742 0.0286954 0)
(-1.38319 0.02881 0)
(-1.41939 0.0289165 -6.2019e-20)
(-1.45602 0.0290147 0)
(-1.49307 0.0291043 -5.97703e-20)
(-1.53053 0.0291852 0)
(-1.5684 0.0292572 0)
(-1.60666 0.0293204 0)
(-1.64532 0.0293748 5.56935e-20)
(-1.68435 0.0294207 0)
(-1.72376 0.0294582 0)
(-1.76353 0.0294875 5.29622e-20)
(-1.80366 0.0295089 5.21076e-20)
(-1.84414 0.0295229 0)
(-1.88495 0.0295303 5.04762e-20)
(-1.9261 0.0295316 0)
(-1.96756 0.0295274 9.78837e-20)
(-2.00935 0.0295178 0)
(-2.05144 0.029503 9.49954e-20)
(-2.09385 0.029483 0)
(-2.13656 0.0294584 -9.2275e-20)
(-2.17957 0.0294301 0)
(-2.22288 0.0293994 0)
(-2.26649 0.029368 0)
(-2.3104 0.0293378 8.72942e-20)
(-2.35461 0.0293101 0)
(-2.39912 0.0292862 -8.50147e-20)
(-2.44395 0.0292669 0)
(-2.48911 0.0292536 8.28651e-20)
(-2.5346 0.0292482 8.18369e-20)
(-2.58045 0.0292527 8.0839e-20)
(-2.62667 0.0292686 0)
(-2.67329 0.0292972 0)
(-2.72033 0.0293396 0)
(-2.76782 0.029397 0)
(-2.81579 0.0294705 0)
(-2.86426 0.0295606 0)
(-2.91327 0.0296667 0)
(-2.96287 0.0297876 0)
(-3.01306 0.0299215 -7.31469e-20)
(-3.0639 0.0300664 -7.24309e-20)
(-3.11539 0.030219 0)
(-3.16757 0.0303747 0)
(-3.22043 0.0305286 0)
(-3.27398 0.0306749 -6.98332e-20)
(-3.3282 0.0308066 0)
(-3.38308 0.0309155 0)
(-3.43857 0.0309919 0)
(-3.49462 0.0310271 0)
(-3.55115 0.0310125 6.71178e-20)
(-3.60806 0.0309395 0)
(-3.66523 0.0307977 0)
(-3.72252 0.0305758 -6.56726e-20)
(-3.77977 0.0302615 6.51987e-20)
(-3.83677 0.0298427 0)
(-3.89331 0.0293067 6.42284e-20)
(-3.94914 0.0286404 0)
(-4.00395 0.0278304 -6.31791e-20)
(-4.05743 0.0268635 0)
(-4.10922 0.0257266 0)
(-4.15893 0.0244067 0)
(-4.20612 0.0228894 0)
(-4.25033 0.0211595 0)
(-4.29104 0.0192048 1.17482e-19)
(-4.3277 0.0170183 1.15343e-19)
(-4.35975 0.014592 0)
(-4.38664 0.0119042 0)
(-4.40771 0.00892355 0)
(-4.42219 0.00564158 -1.03645e-19)
(-4.42929 0.00209821 0)
(-4.42841 -0.00167524 0)
(-4.41892 -0.00567976 0)
(-4.40017 -0.00991962 -8.3915e-20)
(-4.37152 -0.0143961 7.73816e-20)
(-4.33234 -0.0191026 0)
(-4.282 -0.0240278 0)
(-4.21994 -0.0291618 5.29337e-20)
(-4.14559 -0.0344879 4.29116e-20)
(-4.05849 -0.0399757 0)
(-3.95821 -0.0455913 0)
(-3.84447 -0.0513039 -5.94129e-21)
(-3.7171 -0.0570802 -9.05586e-21)
(-3.57605 -0.0628725 0)
(-3.42141 -0.0686275 0)
(-3.25339 -0.0743096 -6.40909e-20)
(-3.07231 -0.0798984 0)
(-2.87866 -0.0853916 0)
(-2.67312 -0.0907933 -1.38804e-19)
(-2.45651 -0.0960656 0)
(-2.22964 -0.101102 -2.04179e-19)
(-1.99319 -0.105766 0)
(-1.7477 -0.110026 0)
(-1.49388 -0.114135 0)
(-1.23292 -0.118601 3.98685e-19)
(-0.966246 -0.123728 0)
(-0.695068 -0.128751 0)
(-0.419551 -0.133192 0)
(-0.134414 -0.134877 0)
(0.158805 -0.130458 0)
(0.433409 -0.123816 0)
(0.702471 -0.117153 6.10306e-19)
(0.964372 -0.110626 5.5737e-19)
(1.21786 -0.104232 0)
(1.46147 -0.0978615 0)
(1.69348 -0.0913588 0)
(1.912 -0.084577 -4.23974e-19)
(2.1151 -0.0774234 0)
(2.30097 -0.0698656 7.75398e-19)
(2.46792 -0.0618956 -7.49488e-19)
(2.61421 -0.0534227 -7.29683e-19)
(2.73766 -0.0441073 7.16072e-19)
(2.83284 -0.0327102 -7.10141e-19)
(2.8943 -0.0162857 7.15916e-19)
(2.84351 0.021424 0)
(0.00395713 -0.0206615 0)
(0.00914308 -0.0240072 0)
(0.0125294 -0.0211195 3.25423e-19)
(0.0141873 -0.015953 0)
(0.0139837 -0.00972293 -2.3718e-19)
(0.011928 -0.00306352 -2.21659e-19)
(0.00805228 0.00363277 -1.05491e-19)
(0.0025596 0.0100031 -1.0137e-19)
(-0.00455529 0.0158765 0)
(-0.0131114 0.0211195 -9.15772e-20)
(-0.02303 0.0258081 0)
(-0.0341802 0.0300106 0)
(-0.0464401 0.0337378 1.54841e-19)
(-0.0596847 0.0370019 7.31888e-20)
(-0.0738301 0.0398633 -1.38231e-19)
(-0.0887904 0.0423718 -1.30675e-19)
(-0.104481 0.0445628 -6.18619e-20)
(-0.120825 0.0464655 0)
(-0.137756 0.0481062 0)
(-0.155215 0.0495103 0)
(-0.173149 0.0507034 -5.00221e-20)
(-0.191513 0.0517104 0)
(-0.210268 0.0525557 1.36483e-19)
(-0.22938 0.0532624 0)
(-0.248822 0.0538521 0)
(-0.268568 0.0543443 3.98856e-20)
(-0.288601 0.0547563 0)
(-0.308905 0.0551034 -3.68054e-20)
(-0.329469 0.055399 -7.07475e-20)
(-0.350283 0.0556544 3.41699e-20)
(-0.371341 0.0558792 0)
(-0.392641 0.0560816 0)
(-0.414182 0.0562682 0)
(-0.435963 0.0564444 -5.97868e-20)
(-0.457989 0.0566148 -5.80442e-20)
(-0.480263 0.0567829 -2.82794e-20)
(-0.502793 0.0569516 0)
(-0.525587 0.0571226 5.36656e-20)
(-0.548657 0.0572975 0)
(-0.57202 0.0574788 -5.1181e-20)
(-0.595695 0.0576703 0)
(-0.619702 0.0578763 0)
(-0.644066 0.058097 4.81022e-20)
(-0.668806 0.0583276 0)
(-0.693907 0.0585679 1.38698e-19)
(-0.719298 0.0588342 -4.54234e-20)
(-0.744946 0.0591277 0)
(-0.770928 0.0594222 -4.36335e-20)
(-0.797302 0.0597344 -4.27876e-20)
(-0.82407 0.0600704 0)
(-0.851229 0.0604258 0)
(-0.878784 0.0607951 0)
(-0.906742 0.0611734 0)
(-0.935109 0.0615573 0)
(-0.963889 0.0619437 3.83633e-20)
(-0.993089 0.0623305 7.51359e-20)
(-1.02271 0.0627157 -3.70947e-20)
(-1.05276 0.0630972 0)
(-1.08325 0.0634733 7.15108e-20)
(-1.11416 0.0638418 -3.50358e-20)
(-1.14551 0.0642009 0)
(-1.17729 0.0645488 -3.42605e-20)
(-1.20951 0.0648837 0)
(-1.24216 0.065204 0)
(-1.27524 0.0655085 -6.5191e-20)
(-1.30875 0.0657961 3.22759e-20)
(-1.34269 0.0660658 -6.33125e-20)
(-1.37705 0.0663169 6.24107e-20)
(-1.41183 0.0665487 3.0924e-20)
(-1.44702 0.0667605 0)
(-1.48261 0.0669518 3.00807e-20)
(-1.51861 0.0671222 0)
(-1.55501 0.0672715 0)
(-1.5918 0.0673997 0)
(-1.62897 0.067507 2.82034e-20)
(-1.66653 0.0675936 0)
(-1.70446 0.0676596 5.52849e-20)
(-1.74277 0.0677055 -8.20496e-20)
(-1.78144 0.0677321 -2.71197e-20)
(-1.82048 0.0677407 0)
(-1.85987 0.0677325 -2.64741e-20)
(-1.89962 0.067709 0)
(-1.93972 0.0676716 -5.17273e-20)
(-1.98017 0.0676212 0)
(-2.02097 0.067559 -5.05753e-20)
(-2.06213 0.0674858 9.94134e-20)
(-2.10363 0.0674031 4.94908e-20)
(-2.14548 0.0673128 0)
(-2.1877 0.0672173 0)
(-2.23027 0.0671197 0)
(-2.2732 0.067023 -4.75193e-20)
(-2.31651 0.0669302 0)
(-2.36019 0.066844 4.66299e-20)
(-2.40426 0.0667668 0)
(-2.44873 0.0667019 -1.3678e-19)
(-2.49362 0.0666527 -4.54138e-20)
(-2.53892 0.0666232 -4.50396e-20)
(-2.58467 0.0666165 0)
(-2.63088 0.0666355 0)
(-2.67757 0.0666827 0)
(-2.72476 0.0667604 0)
(-2.77247 0.0668704 0)
(-2.82072 0.0670134 -8.56098e-20)
(-2.86954 0.0671881 -8.50773e-20)
(-2.91894 0.0673922 0)
(-2.96895 0.0676222 4.23661e-20)
(-3.01958 0.0678729 4.21458e-20)
(-3.07084 0.0681371 0)
(-3.12274 0.0684053 8.28765e-20)
(-3.17526 0.0686658 0)
(-3.2284 0.0689052 -4.07943e-20)
(-3.28213 0.0691072 0)
(-3.3364 0.0692533 0)
(-3.39116 0.0693236 8.13956e-20)
(-3.44633 0.069298 0)
(-3.50181 0.0691567 -4.07682e-20)
(-3.55749 0.0688785 0)
(-3.61323 0.0684399 0)
(-3.66886 0.0678157 -3.99224e-20)
(-3.7242 0.0669792 -4.03422e-20)
(-3.77903 0.0659031 0)
(-3.83311 0.0645598 3.96278e-20)
(-3.88616 0.0629211 0)
(-3.93789 0.0609582 -3.93563e-20)
(-3.98794 0.0586417 -7.87217e-20)
(-4.03595 0.055942 0)
(-4.08151 0.0528311 0)
(-4.12419 0.0492805 0)
(-4.16349 0.0452612 0)
(-4.1989 0.0407478 -7.54071e-20)
(-4.22985 0.0357244 -2.22552e-19)
(-4.25581 0.0301781 0)
(-4.2762 0.0240756 0)
(-4.29039 0.0173647 0)
(-4.29759 0.0100219 6.7213e-20)
(-4.2971 0.00211204 0)
(-4.28849 -0.00628296 0)
(-4.27113 -0.0151459 -1.17241e-19)
(-4.24442 -0.0244669 -5.54446e-20)
(-4.20775 -0.034234 -4.9964e-20)
(-4.16051 -0.0444226 0)
(-4.10212 -0.0549919 0)
(-4.03202 -0.0658961 -3.38711e-20)
(-3.94968 -0.0770805 2.95648e-20)
(-3.85466 -0.0884677 0)
(-3.74658 -0.0999621 0)
(-3.62517 -0.111464 3.71815e-21)
(-3.49024 -0.122875 1.36779e-20)
(-3.34175 -0.13408 0)
(-3.17979 -0.144937 0)
(-3.00456 -0.155326 3.85991e-20)
(-2.81641 -0.165156 0)
(-2.6158 -0.17436 1.25839e-19)
(-2.40337 -0.182907 -7.52161e-20)
(-2.17986 -0.190742 0)
(-1.94596 -0.19772 1.12914e-19)
(-1.70229 -0.203677 2.57074e-19)
(-1.44939 -0.208599 0)
(-1.18794 -0.212893 0)
(-0.91876 -0.21744 -1.95607e-19)
(-0.642231 -0.223224 0)
(-0.356932 -0.230079 4.87852e-19)
(-0.0582047 -0.235016 0)
(0.237086 -0.233652 0)
(0.526665 -0.227153 0)
(0.810144 -0.219326 0)
(1.08769 -0.211218 -2.31971e-19)
(1.35764 -0.202673 -2.23525e-19)
(1.61824 -0.19348 0)
(1.86762 -0.183421 0)
(2.10373 -0.172299 0)
(2.32456 -0.159996 1.96887e-19)
(2.52824 -0.146508 0)
(2.7132 -0.131927 -3.78899e-19)
(2.87811 -0.116328 3.74572e-19)
(3.02177 -0.0995715 3.72415e-19)
(3.14283 -0.0809559 3.68876e-19)
(3.23793 -0.0581919 3.76893e-19)
(3.30698 -0.0259105 3.84134e-19)
(3.31394 0.0348824 0)
(0.00173088 -0.0309581 0)
(0.00330141 -0.0294184 0)
(0.00243644 -0.0217009 -2.45707e-19)
(-0.000143868 -0.0123422 -1.97146e-19)
(-0.0043631 -0.00243923 1.69907e-19)
(-0.0099901 0.00745429 1.51346e-19)
(-0.0167629 0.0169141 3.50232e-23)
(-0.0246087 0.0257537 0)
(-0.0334553 0.0338736 0)
(-0.043255 0.0412342 0)
(-0.0539669 0.0478536 0)
(-0.0655274 0.0537674 0)
(-0.077869 0.0590142 -2.82219e-19)
(-0.0909307 0.0636375 0)
(-0.104656 0.0676899 8.46689e-20)
(-0.118989 0.0712243 8.04479e-20)
(-0.133874 0.074291 0)
(-0.149262 0.0769366 0)
(-0.165109 0.0792046 0)
(-0.181378 0.0811368 0)
(-0.198035 0.0827726 6.34351e-20)
(-0.215054 0.0841498 0)
(-0.232409 0.0853038 -5.82386e-20)
(-0.250081 0.0862676 0)
(-0.268052 0.0870714 0)
(-0.286308 0.0877424 0)
(-0.304838 0.0883048 -9.97898e-20)
(-0.323631 0.0887799 0)
(-0.342681 0.0891861 4.66442e-20)
(-0.361982 0.0895394 -9.02303e-20)
(-0.381531 0.0898531 0)
(-0.401326 0.0901386 0)
(-0.421367 0.0904054 0)
(-0.441656 0.0906615 4.02234e-20)
(-0.462195 0.0909136 3.91923e-20)
(-0.48299 0.091167 0)
(-0.504047 0.0914266 0)
(-0.525374 0.0916961 -7.28759e-20)
(-0.546979 0.0919792 -7.13076e-20)
(-0.568875 0.0922797 6.98378e-20)
(-0.591071 0.0926026 0)
(-0.61358 0.0929542 0)
(-0.636414 0.0933421 0)
(-0.659583 0.0937745 0)
(-0.683085 0.0942576 -6.37346e-20)
(-0.706896 0.0947845 -6.24874e-20)
(-0.731003 0.0953171 6.13857e-20)
(-0.755428 0.09584 0)
(-0.780199 0.0963695 0)
(-0.805324 0.096914 0)
(-0.830812 0.0974749 0)
(-0.856666 0.0980499 -5.64515e-20)
(-0.882895 0.0986356 0)
(-0.909502 0.0992283 0)
(-0.936494 0.0998246 -5.39178e-20)
(-0.963874 0.100421 -5.32701e-20)
(-0.991648 0.101015 0)
(-1.01982 0.101602 1.03259e-19)
(-1.04838 0.10218 -5.10543e-20)
(-1.07735 0.102745 5.03582e-20)
(-1.10672 0.103296 0)
(-1.13649 0.103828 0)
(-1.16666 0.10434 0)
(-1.19723 0.104829 0)
(-1.22821 0.105294 4.71415e-20)
(-1.25957 0.105733 9.27961e-20)
(-1.29134 0.106144 4.59616e-20)
(-1.32349 0.106527 -4.5392e-20)
(-1.35604 0.106881 0)
(-1.38897 0.107204 8.8285e-20)
(-1.42227 0.107496 8.72204e-20)
(-1.45596 0.107757 8.61799e-20)
(-1.49001 0.107987 -8.5163e-20)
(-1.52444 0.108187 0)
(-1.55923 0.108356 -1.24949e-19)
(-1.59438 0.108495 0)
(-1.62988 0.108606 4.05128e-20)
(-1.66574 0.108689 4.03633e-20)
(-1.70195 0.108746 0)
(-1.73852 0.108779 0)
(-1.77543 0.108789 7.78553e-20)
(-1.81268 0.108779 0)
(-1.85029 0.108751 7.62559e-20)
(-1.88824 0.108707 0)
(-1.92654 0.108648 -7.47482e-20)
(-1.96519 0.108578 -1.48361e-19)
(-2.00421 0.108498 0)
(-2.04358 0.108411 0)
(-2.08333 0.108323 0)
(-2.12344 0.108235 -7.1388e-20)
(-2.16394 0.108152 0)
(-2.20484 0.108078 -7.02091e-20)
(-2.24613 0.108015 0)
(-2.28784 0.107969 0)
(-2.32997 0.107942 1.3754e-19)
(-2.37253 0.107939 0)
(-2.41555 0.107966 6.76765e-20)
(-2.45904 0.108025 0)
(-2.50301 0.108121 6.68293e-20)
(-2.54749 0.108256 0)
(-2.59248 0.108434 0)
(-2.638 0.108656 0)
(-2.68408 0.10892 1.9656e-19)
(-2.73073 0.109226 6.54294e-20)
(-2.77796 0.109568 0)
(-2.82579 0.10994 0)
(-2.87422 0.110332 0)
(-2.92327 0.110734 0)
(-2.97293 0.111128 -6.43131e-20)
(-3.02318 0.111495 1.27724e-19)
(-3.07401 0.111812 6.4025e-20)
(-3.12538 0.11205 -1.27249e-19)
(-3.17724 0.112181 -1.27073e-19)
(-3.22953 0.112171 -6.37412e-20)
(-3.28217 0.111989 0)
(-3.33506 0.111601 -1.26745e-19)
(-3.38807 0.110971 0)
(-3.44106 0.110058 1.26632e-19)
(-3.49388 0.108823 6.35062e-20)
(-3.54631 0.107221 0)
(-3.59815 0.105209 -1.26424e-19)
(-3.64915 0.102743 -6.3305e-20)
(-3.69904 0.0997773 0)
(-3.7475 0.096266 -6.28005e-20)
(-3.79419 0.0921614 1.8825e-19)
(-3.83875 0.0874156 0)
(-3.88076 0.081982 0)
(-3.91979 0.0758161 0)
(-3.95536 0.0688748 0)
(-3.98693 0.0611205 1.21044e-19)
(-4.01394 0.0525252 1.19165e-19)
(-4.03586 0.0430616 0)
(-4.05213 0.0326841 0)
(-4.06213 0.0213467 0)
(-4.06497 0.00907256 0)
(-4.06031 -0.00403212 0)
(-4.04757 -0.0178922 0)
(-4.02616 -0.0324954 9.39611e-20)
(-3.99551 -0.0478231 -1.08165e-21)
(-3.95504 -0.0638493 0)
(-3.90415 -0.0805339 0)
(-3.84229 -0.0978135 6.61679e-20)
(-3.7689 -0.115607 0)
(-3.68349 -0.133819 -4.50425e-20)
(-3.58561 -0.152325 -3.5589e-20)
(-3.47488 -0.17097 0)
(-3.35104 -0.189585 0)
(-3.21391 -0.208002 -6.29459e-21)
(-3.06344 -0.226042 -3.90584e-20)
(-2.8997 -0.243488 0)
(-2.72288 -0.260142 0)
(-2.5333 -0.275858 0)
(-2.33139 -0.290489 -9.60691e-20)
(-2.11774 -0.303939 1.17739e-19)
(-1.89295 -0.316115 0)
(-1.6576 -0.326858 3.23603e-19)
(-1.41215 -0.336108 1.8397e-19)
(-1.15708 -0.344112 -4.28739e-19)
(-0.89286 -0.351588 0)
(-0.61984 -0.359541 0)
(-0.33742 -0.368625 -6.05934e-19)
(-0.0431942 -0.376464 -3.25899e-19)
(0.247955 -0.378276 0)
(0.533366 -0.373132 0)
(0.816173 -0.363964 0)
(1.09563 -0.353071 0)
(1.36991 -0.34094 -5.86706e-19)
(1.63688 -0.327417 0)
(1.89435 -0.312276 0)
(2.14004 -0.295314 0)
(2.37163 -0.27639 0)
(2.58693 -0.255502 0)
(2.78406 -0.232814 0)
(2.96159 -0.208602 -4.89152e-19)
(3.11852 -0.183089 0)
(3.25412 -0.15617 0)
(3.36793 -0.127017 -9.73525e-19)
(3.45843 -0.0931132 4.92979e-19)
(3.52869 -0.0490655 -5.10993e-19)
(3.56269 0.0192165 5.37211e-19)
(-0.00113184 -0.0317422 0)
(-0.00323826 -0.02524 6.24527e-19)
(-0.00773111 -0.0137892 0)
(-0.0137021 -0.00143722 1.56926e-19)
(-0.0207025 0.0108436 0)
(-0.0284509 0.022601 0)
(-0.0368775 0.0336865 -1.02813e-19)
(-0.0459352 0.0440159 0)
(-0.0555974 0.0535337 0)
(-0.06585 0.0622155 0)
(-0.0766796 0.0700672 0)
(-0.0880661 0.077114 0)
(-0.0999854 0.0833939 2.73655e-19)
(-0.112412 0.0889536 1.29847e-19)
(-0.12532 0.0938466 -1.23503e-19)
(-0.13868 0.0981292 0)
(-0.152466 0.101858 0)
(-0.16665 0.105087 0)
(-0.18121 0.107871 0)
(-0.196123 0.110259 0)
(-0.211373 0.1123 9.46646e-20)
(-0.226942 0.114038 9.10302e-20)
(-0.242818 0.115514 -8.76572e-20)
(-0.258988 0.116767 8.45239e-20)
(-0.275442 0.117831 0)
(-0.292171 0.118739 0)
(-0.309166 0.119516 7.64212e-20)
(-0.326422 0.12019 0)
(-0.343933 0.12078 0)
(-0.361695 0.121305 6.98252e-20)
(-0.379705 0.121783 6.7862e-20)
(-0.397961 0.122227 6.60714e-20)
(-0.416462 0.122648 0)
(-0.435209 0.123058 0)
(-0.454205 0.123465 -6.13559e-20)
(-0.473451 0.123877 0)
(-0.492952 0.124299 0)
(-0.512712 0.124736 5.75126e-20)
(-0.532738 0.125194 -5.62522e-20)
(-0.553035 0.125676 5.51633e-20)
(-0.573608 0.126184 0)
(-0.594463 0.12672 0)
(-0.615604 0.127287 1.04537e-19)
(-0.637036 0.127886 0)
(-0.658758 0.12852 1.01007e-19)
(-0.680767 0.129186 1.49063e-19)
(-0.703066 0.129873 -1.46641e-19)
(-0.725664 0.130577 9.61667e-20)
(-0.748573 0.131301 0)
(-0.771803 0.132046 0)
(-0.795357 0.132811 9.1879e-20)
(-0.819241 0.133592 4.53455e-20)
(-0.843459 0.134385 0)
(-0.868016 0.135186 0)
(-0.892916 0.135991 4.35081e-20)
(-0.918162 0.136794 8.5739e-20)
(-0.943758 0.137593 0)
(-0.969706 0.138383 -8.36918e-20)
(-0.996007 0.139159 8.25127e-20)
(-1.02266 0.139919 -8.14978e-20)
(-1.04968 0.140658 0)
(-1.07704 0.141373 0)
(-1.10477 0.14206 0)
(-1.13285 0.142718 0)
(-1.16128 0.143343 0)
(-1.19006 0.143933 -7.6061e-20)
(-1.21919 0.144487 0)
(-1.24867 0.145002 0)
(-1.27849 0.145479 0)
(-1.30865 0.145915 -1.45358e-19)
(-1.33914 0.146311 -7.1966e-20)