/*--------------------------------*- C++ -*----------------------------------*\
| =========                 |                                                 |
| \\      /  F ield         | OpenFOAM: The Open Source CFD Toolbox           |
|  \\    /   O peration     | Version:  dev                                   |
|   \\  /    A nd           | Web:      www.OpenFOAM.com                      |
|    \\/     M anipulation  |                                                 |
\*---------------------------------------------------------------------------*/
FoamFile
{
    version     2.0;
    format      ascii;
    class       volSymmTensorField;
    location    "0";
    object      B;
}
// * * * * * * * * * * * * * * * * * * * * * * * * * * * * * * * * * * * * * //

dimensions	[0 0 0 0 0 0 0];

internalField   nonuniform List<symmTensor>
8025
(
(1.785697 0.000000 0.000000 1.785697 0.000000 1.875000 )
(1.577364 0.000000 0.000000 1.577364 0.000000 1.666667 )
(1.622015 0.000000 0.000000 1.622015 0.000000 1.666667 )
(1.853867 0.000000 0.000000 0.713867 0.000000 0.875000 )
(0.928867 0.000000 0.000000 0.607067 0.000000 0.833334 )
(1.577364 0.000000 0.000000 1.577364 0.000000 1.666667 )
(1.666667 0.000000 0.000000 1.666667 0.000000 1.666667 )
(1.622015 0.000000 0.000000 1.622015 0.000000 1.666667 )
(1.853867 0.000000 0.000000 0.318034 0.000000 0.479167 )
(0.616367 0.000000 0.000000 0.190400 0.000000 0.416667 )
(1.622015 0.000000 0.000000 1.622015 0.000000 1.666667 )
(1.622015 0.000000 0.000000 1.622015 0.000000 1.666667 )
(1.666667 0.000000 0.000000 1.666667 0.000000 1.666667 )
(1.666667 0.000000 0.000000 0.130834 0.000000 0.083333 )
(0.416667 0.000000 0.000000 0.050000 0.000000 0.000000 )
(0.653867 0.000000 0.000000 1.853867 0.000000 0.833334 )
(0.237200 0.000000 0.000000 1.853867 0.000000 0.416667 )
(0.050000 0.000000 0.000000 1.666667 0.000000 0.000000 )
(0.224700 0.000000 0.000000 0.308033 0.000000 0.480792 )
(0.616367 0.000000 0.000000 0.190400 0.000000 0.416667 )
(0.607067 0.000000 0.000000 0.928867 0.000000 0.833334 )
(0.190400 0.000000 0.000000 0.616367 0.000000 0.416667 )
(0.050000 0.000000 0.000000 0.416667 0.000000 0.000000 )
(0.190400 0.000000 0.000000 0.616367 0.000000 0.416667 )
(0.416667 0.000000 0.000000 0.416667 0.000000 0.000000 )
(1.534507 0.000000 0.000000 1.542583 0.000000 1.666644 )
(1.534507 0.000000 0.000000 1.542588 0.000000 1.666649 )
(1.596523 0.000000 0.000000 1.604604 0.000000 1.666649 )
(1.918539 0.000000 0.000000 0.343271 0.000000 0.127554 )
(0.672603 0.000000 0.000000 0.194969 0.000000 0.033172 )
(1.542635 0.000000 0.000000 1.542635 0.000000 1.666667 )
(1.666667 0.000000 0.000000 1.666667 0.000000 1.666667 )
(1.604651 0.000000 0.000000 1.604651 0.000000 1.666667 )
(1.926667 0.000000 0.000000 0.343333 0.000000 0.127577 )
(0.260000 0.000000 0.000000 0.195000 0.000000 0.033183 )
(1.604651 0.000000 0.000000 1.604651 0.000000 1.666667 )
(1.604651 0.000000 0.000000 1.604651 0.000000 1.666667 )
(1.666667 0.000000 0.000000 1.666667 0.000000 1.666667 )
(1.666667 0.000000 0.000000 0.083333 0.000000 0.083333 )
(0.000000 0.000000 0.000000 0.000000 0.000000 0.000000 )
(0.260000 0.000000 0.000000 1.926667 0.000000 0.044244 )
(0.260000 0.000000 0.000000 1.926667 0.000000 0.044244 )
(0.000000 0.000000 0.000000 1.666667 0.000000 0.000000 )
(0.260000 0.000000 0.000000 0.343333 0.000000 0.044244 )
(0.260000 0.000000 0.000000 0.195000 0.000000 0.033183 )
(0.195000 0.000000 0.000000 0.676604 0.000000 0.033183 )
(0.195000 0.000000 0.000000 0.259953 0.000000 0.033183 )
(0.000000 0.000000 0.000000 0.000000 0.000000 0.000000 )
(0.195000 0.000000 0.000000 0.259938 0.000000 0.033183 )
(0.000000 0.000000 0.000000 0.000000 0.000000 0.000000 )
(1.442634 0.000000 0.000000 1.541995 0.000000 1.666644 )
(1.442634 0.000000 0.000000 1.542059 0.000000 1.666649 )
(1.504650 0.000000 0.000000 1.604075 0.000000 1.666649 )
(1.826666 0.000000 0.000000 0.342565 0.000000 0.127554 )
(0.626666 0.000000 0.000000 0.194616 0.000000 0.033172 )
(1.542635 0.000000 0.000000 1.542635 0.000000 1.666667 )
(1.666667 0.000000 0.000000 1.666667 0.000000 1.666667 )
(1.604651 0.000000 0.000000 1.604651 0.000000 1.666667 )
(1.926667 0.000000 0.000000 0.343333 0.000000 0.127577 )
(0.260000 0.000000 0.000000 0.195000 0.000000 0.033183 )
(1.604651 0.000000 0.000000 1.604651 0.000000 1.666667 )
(1.604651 0.000000 0.000000 1.604651 0.000000 1.666667 )
(1.666667 0.000000 0.000000 1.666667 0.000000 1.666667 )
(1.666667 0.000000 0.000000 0.083333 0.000000 0.083333 )
(0.000000 0.000000 0.000000 0.000000 0.000000 0.000000 )
(0.260000 0.000000 0.000000 1.926667 0.000000 0.044244 )
(0.260000 0.000000 0.000000 1.926667 0.000000 0.044244 )
(0.000000 0.000000 0.000000 1.666667 0.000000 0.000000 )
(0.260000 0.000000 0.000000 0.343333 0.000000 0.044244 )
(0.260000 0.000000 0.000000 0.195000 0.000000 0.033183 )
(0.194999 0.000000 0.000000 0.675899 0.000000 0.033183 )
(0.194999 0.000000 0.000000 0.259424 0.000000 0.033183 )
(0.000000 0.000000 0.000000 0.000000 0.000000 0.000000 )
(0.194999 0.000000 0.000000 0.259232 0.000000 0.033183 )
(0.000000 0.000000 0.000000 0.000000 0.000000 0.000000 )
(1.403882 0.000000 0.000000 1.541772 0.000000 1.666628 )
(1.403882 0.000000 0.000000 1.541835 0.000000 1.666638 )
(1.465897 0.000000 0.000000 1.603852 0.000000 1.666638 )
(1.787913 0.000000 0.000000 0.342268 0.000000 0.127539 )
(0.607290 0.000000 0.000000 0.194467 0.000000 0.033164 )
(1.542635 0.000000 0.000000 1.542635 0.000000 1.666667 )
(1.666667 0.000000 0.000000 1.666667 0.000000 1.666667 )
(1.604651 0.000000 0.000000 1.604651 0.000000 1.666667 )
(1.926667 0.000000 0.000000 0.343333 0.000000 0.127577 )
(0.260000 0.000000 0.000000 0.195000 0.000000 0.033183 )
(1.604651 0.000000 0.000000 1.604651 0.000000 1.666667 )
(1.604651 0.000000 0.000000 1.604651 0.000000 1.666667 )
(1.666667 0.000000 0.000000 1.666667 0.000000 1.666667 )
(1.666667 0.000000 0.000000 0.083333 0.000000 0.083333 )
(0.000000 0.000000 0.000000 0.000000 0.000000 0.000000 )
(0.260000 0.000000 0.000000 1.926667 0.000000 0.044244 )
(0.260000 0.000000 0.000000 1.926667 0.000000 0.044244 )
(0.000000 0.000000 0.000000 1.666667 0.000000 0.000000 )
(0.260000 0.000000 0.000000 0.343333 0.000000 0.044244 )
(0.260000 0.000000 0.000000 0.195000 0.000000 0.033183 )
(0.194998 0.000000 0.000000 0.675601 0.000000 0.033183 )
(0.194998 0.000000 0.000000 0.259200 0.000000 0.033183 )
(0.000000 0.000000 0.000000 0.000000 0.000000 0.000000 )
(0.194998 0.000000 0.000000 0.258934 0.000000 0.033183 )
(0.000000 0.000000 0.000000 0.000000 0.000000 0.000000 )
(1.374007 0.000000 0.000000 1.541606 0.000000 1.874977 )
(1.374757 0.000000 0.000000 1.541668 0.000000 1.666649 )
(1.436773 0.000000 0.000000 1.603684 0.000000 1.666649 )
(1.751528 0.000000 0.000000 0.360022 0.000000 0.874954 )
(0.592467 0.000000 0.000000 0.215029 0.000000 0.833310 )
(1.542635 0.000000 0.000000 1.542635 0.000000 1.666667 )
(1.666667 0.000000 0.000000 1.666667 0.000000 1.666667 )
(1.604651 0.000000 0.000000 1.604651 0.000000 1.666667 )
(1.920906 0.000000 0.000000 0.361323 0.000000 0.479167 )
(0.260490 0.000000 0.000000 0.215680 0.000000 0.416667 )
(1.604651 0.000000 0.000000 1.604651 0.000000 1.666667 )
(1.604651 0.000000 0.000000 1.604651 0.000000 1.666667 )
(1.666667 0.000000 0.000000 1.666667 0.000000 1.666667 )
(1.666667 0.000000 0.000000 0.107083 0.000000 0.083333 )
(0.000000 0.000000 0.000000 0.025000 0.000000 0.000000 )
(0.279240 0.000000 0.000000 1.920906 0.000000 0.833334 )
(0.279240 0.000000 0.000000 1.920906 0.000000 0.416667 )
(0.025000 0.000000 0.000000 1.666667 0.000000 0.000000 )
(0.272990 0.000000 0.000000 0.356323 0.000000 0.480792 )
(0.260490 0.000000 0.000000 0.215680 0.000000 0.416667 )
(0.215678 0.000000 0.000000 0.675855 0.000000 0.833334 )
(0.215678 0.000000 0.000000 0.259513 0.000000 0.416667 )
(0.024998 0.000000 0.000000 0.000000 0.000000 0.000000 )
(0.215678 0.000000 0.000000 0.259189 0.000000 0.416667 )
(0.000000 0.000000 0.000000 0.000000 0.000000 0.000000 )
(0.928867 0.000000 0.000000 0.907067 0.000000 1.041667 )
(0.303867 0.000000 0.000000 0.653867 0.000000 0.833334 )
(0.210267 0.000000 0.000000 0.560267 0.000000 0.833334 )
(0.303867 0.000000 0.000000 0.653867 0.000000 0.833334 )
(0.928867 0.000000 0.000000 0.607067 0.000000 0.833334 )
(0.616367 0.000000 0.000000 0.294567 0.000000 0.729167 )
(0.199700 0.000000 0.000000 0.237200 0.000000 0.416667 )
(0.106100 0.000000 0.000000 0.143600 0.000000 0.416667 )
(0.199700 0.000000 0.000000 0.237200 0.000000 0.416667 )
(0.616367 0.000000 0.000000 0.190400 0.000000 0.416667 )
(0.416667 0.000000 0.000000 0.154167 0.000000 0.416667 )
(0.000000 0.000000 0.000000 0.050000 0.000000 0.000000 )
(0.000000 0.000000 0.000000 0.050000 0.000000 0.000000 )
(0.000000 0.000000 0.000000 0.050000 0.000000 0.000000 )
(0.416667 0.000000 0.000000 0.050000 0.000000 0.000000 )
(0.616367 0.000000 0.000000 0.294567 0.000000 0.729167 )
(0.199700 0.000000 0.000000 0.237200 0.000000 0.416667 )
(0.106100 0.000000 0.000000 0.143600 0.000000 0.416667 )
(0.199700 0.000000 0.000000 0.237200 0.000000 0.416667 )
(0.616367 0.000000 0.000000 0.190400 0.000000 0.416667 )
(0.616367 0.000000 0.000000 0.953867 0.000000 0.729167 )
(0.189134 0.000000 0.000000 0.585467 0.000000 0.416166 )
(0.199700 0.000000 0.000000 0.628667 0.000000 0.417167 )
(0.199700 0.000000 0.000000 0.653867 0.000000 0.416667 )
(0.522767 0.000000 0.000000 0.560267 0.000000 0.416667 )
(0.668539 0.000000 0.000000 0.611604 0.000000 0.137327 )
(0.251872 0.000000 0.000000 0.259953 0.000000 0.044227 )
(0.121872 0.000000 0.000000 0.129953 0.000000 0.022105 )
(0.251872 0.000000 0.000000 0.259938 0.000000 0.044221 )
(0.672603 0.000000 0.000000 0.194969 0.000000 0.033172 )
(0.260000 0.000000 0.000000 0.195000 0.000000 0.033183 )
(0.260000 0.000000 0.000000 0.260000 0.000000 0.044244 )
(0.130000 0.000000 0.000000 0.130000 0.000000 0.022122 )
(0.260000 0.000000 0.000000 0.260000 0.000000 0.044244 )
(0.260000 0.000000 0.000000 0.195000 0.000000 0.033183 )
(0.000000 0.000000 0.000000 0.000000 0.000000 0.000000 )
(0.000000 0.000000 0.000000 0.000000 0.000000 0.000000 )
(0.000000 0.000000 0.000000 0.000000 0.000000 0.000000 )
(0.000000 0.000000 0.000000 0.000000 0.000000 0.000000 )
(0.000000 0.000000 0.000000 0.000000 0.000000 0.000000 )
(0.260000 0.000000 0.000000 0.195000 0.000000 0.033183 )
(0.260000 0.000000 0.000000 0.260000 0.000000 0.044244 )
(0.130000 0.000000 0.000000 0.130000 0.000000 0.022122 )
(0.260000 0.000000 0.000000 0.260000 0.000000 0.044244 )
(0.260000 0.000000 0.000000 0.195000 0.000000 0.033183 )
(0.260000 0.000000 0.000000 0.676604 0.000000 0.044244 )
(0.245326 0.000000 0.000000 0.164953 0.000000 0.026922 )
(0.260000 0.000000 0.000000 0.224953 0.000000 0.039444 )
(0.260000 0.000000 0.000000 0.259938 0.000000 0.044244 )
(0.130000 0.000000 0.000000 0.129969 0.000000 0.022122 )
(0.576666 0.000000 0.000000 0.610898 0.000000 0.137327 )
(0.159999 0.000000 0.000000 0.259424 0.000000 0.044227 )
(0.029999 0.000000 0.000000 0.129424 0.000000 0.022105 )
(0.159999 0.000000 0.000000 0.259232 0.000000 0.044221 )
(0.626666 0.000000 0.000000 0.194616 0.000000 0.033172 )
(0.260000 0.000000 0.000000 0.195000 0.000000 0.033183 )
(0.260000 0.000000 0.000000 0.260000 0.000000 0.044244 )
(0.130000 0.000000 0.000000 0.130000 0.000000 0.022122 )
(0.260000 0.000000 0.000000 0.260000 0.000000 0.044244 )
(0.260000 0.000000 0.000000 0.195000 0.000000 0.033183 )
(0.000000 0.000000 0.000000 0.000000 0.000000 0.000000 )
(0.000000 0.000000 0.000000 0.000000 0.000000 0.000000 )
(0.000000 0.000000 0.000000 0.000000 0.000000 0.000000 )
(0.000000 0.000000 0.000000 0.000000 0.000000 0.000000 )
(0.000000 0.000000 0.000000 0.000000 0.000000 0.000000 )
(0.260000 0.000000 0.000000 0.195000 0.000000 0.033183 )
(0.260000 0.000000 0.000000 0.260000 0.000000 0.044244 )
(0.130000 0.000000 0.000000 0.130000 0.000000 0.022122 )
(0.260000 0.000000 0.000000 0.260000 0.000000 0.044244 )
(0.260000 0.000000 0.000000 0.195000 0.000000 0.033183 )
(0.259999 0.000000 0.000000 0.675899 0.000000 0.044244 )
(0.245325 0.000000 0.000000 0.164424 0.000000 0.026922 )
(0.259999 0.000000 0.000000 0.224424 0.000000 0.039444 )
(0.259999 0.000000 0.000000 0.259232 0.000000 0.044244 )
(0.129999 0.000000 0.000000 0.129616 0.000000 0.022122 )
(0.537913 0.000000 0.000000 0.610601 0.000000 0.137311 )
(0.121246 0.000000 0.000000 0.259200 0.000000 0.044215 )
(0.000000 0.000000 0.000000 0.129201 0.000000 0.022093 )
(0.121246 0.000000 0.000000 0.258934 0.000000 0.044206 )
(0.607290 0.000000 0.000000 0.194467 0.000000 0.033164 )
(0.260000 0.000000 0.000000 0.195000 0.000000 0.033183 )
(0.260000 0.000000 0.000000 0.260000 0.000000 0.044244 )
(0.130000 0.000000 0.000000 0.130000 0.000000 0.022122 )
(0.260000 0.000000 0.000000 0.260000 0.000000 0.044244 )
(0.260000 0.000000 0.000000 0.195000 0.000000 0.033183 )
(0.000000 0.000000 0.000000 0.000000 0.000000 0.000000 )
(0.000000 0.000000 0.000000 0.000000 0.000000 0.000000 )
(0.000000 0.000000 0.000000 0.000000 0.000000 0.000000 )
(0.000000 0.000000 0.000000 0.000000 0.000000 0.000000 )
(0.000000 0.000000 0.000000 0.000000 0.000000 0.000000 )
(0.260000 0.000000 0.000000 0.195000 0.000000 0.033183 )
(0.260000 0.000000 0.000000 0.260000 0.000000 0.044244 )
(0.130000 0.000000 0.000000 0.130000 0.000000 0.022122 )
(0.260000 0.000000 0.000000 0.260000 0.000000 0.044244 )
(0.260000 0.000000 0.000000 0.195000 0.000000 0.033183 )
(0.259998 0.000000 0.000000 0.675601 0.000000 0.044244 )
(0.245324 0.000000 0.000000 0.164200 0.000000 0.026922 )
(0.259998 0.000000 0.000000 0.224201 0.000000 0.039444 )
(0.259998 0.000000 0.000000 0.258934 0.000000 0.044244 )
(0.129999 0.000000 0.000000 0.129467 0.000000 0.022122 )
(0.507778 0.000000 0.000000 0.624801 0.000000 1.041396 )
(0.091112 0.000000 0.000000 0.278263 0.000000 0.833299 )
(0.000000 0.000000 0.000000 0.151145 0.000000 0.833299 )
(0.091112 0.000000 0.000000 0.277939 0.000000 0.833287 )
(0.592467 0.000000 0.000000 0.215029 0.000000 0.833310 )
(0.260490 0.000000 0.000000 0.215680 0.000000 0.728930 )
(0.260490 0.000000 0.000000 0.279240 0.000000 0.416667 )
(0.133370 0.000000 0.000000 0.152120 0.000000 0.416667 )
(0.260490 0.000000 0.000000 0.279240 0.000000 0.416667 )
(0.260490 0.000000 0.000000 0.215680 0.000000 0.416667 )
(0.000000 0.000000 0.000000 0.025000 0.000000 0.416667 )
(0.000000 0.000000 0.000000 0.025000 0.000000 0.000000 )
(0.000000 0.000000 0.000000 0.025000 0.000000 0.000000 )
(0.000000 0.000000 0.000000 0.025000 0.000000 0.000000 )
(0.000000 0.000000 0.000000 0.025000 0.000000 0.000000 )
(0.260490 0.000000 0.000000 0.215680 0.000000 0.728930 )
(0.260490 0.000000 0.000000 0.279240 0.000000 0.416667 )
(0.133370 0.000000 0.000000 0.152120 0.000000 0.416667 )
(0.260490 0.000000 0.000000 0.279240 0.000000 0.416667 )
(0.260490 0.000000 0.000000 0.215680 0.000000 0.416667 )
(0.260487 0.000000 0.000000 0.732105 0.000000 0.729167 )
(0.245813 0.000000 0.000000 0.243787 0.000000 0.416166 )
(0.260487 0.000000 0.000000 0.302288 0.000000 0.417167 )
(0.260487 0.000000 0.000000 0.336272 0.000000 0.416667 )
(0.133369 0.000000 0.000000 0.209803 0.000000 0.416667 )
(0.928867 0.000000 0.000000 0.907067 0.000000 1.041667 )
(0.303867 0.000000 0.000000 0.653867 0.000000 0.833334 )
(0.210267 0.000000 0.000000 0.560267 0.000000 0.833334 )
(0.303867 0.000000 0.000000 0.653867 0.000000 0.833334 )
(0.958617 0.000000 0.000000 0.646117 0.000000 0.912500 )
(0.616367 0.000000 0.000000 0.294567 0.000000 0.729167 )
(0.199700 0.000000 0.000000 0.237200 0.000000 0.416667 )
(0.106100 0.000000 0.000000 0.143600 0.000000 0.416667 )
(0.017250 0.000000 0.000000 0.017250 0.000000 0.079167 )
(0.653867 0.000000 0.000000 0.199700 0.000000 0.416667 )
(0.416667 0.000000 0.000000 0.154167 0.000000 0.416667 )
(0.000000 0.000000 0.000000 0.050000 0.000000 0.000000 )
(0.000000 0.000000 0.000000 0.050000 0.000000 0.000000 )
(0.143600 0.000000 0.000000 0.110850 0.000000 0.416667 )
(0.560267 0.000000 0.000000 0.106100 0.000000 0.416667 )
(0.616367 0.000000 0.000000 0.294567 0.000000 0.729167 )
(0.229450 0.000000 0.000000 0.229450 0.000000 0.495834 )
(0.029750 0.000000 0.000000 0.000000 0.000000 0.000000 )
(0.237200 0.000000 0.000000 0.199700 0.000000 0.416667 )
(0.653867 0.000000 0.000000 0.199700 0.000000 0.416667 )
(0.522767 0.000000 0.000000 0.822767 0.000000 0.416667 )
(0.190400 0.000000 0.000000 0.616367 0.000000 0.416667 )
(0.050000 0.000000 0.000000 0.416667 0.000000 0.000000 )
(0.190400 0.000000 0.000000 0.616367 0.000000 0.416667 )
(0.607067 0.000000 0.000000 0.616367 0.000000 0.416667 )
(0.668539 0.000000 0.000000 0.611604 0.000000 0.137327 )
(0.251872 0.000000 0.000000 0.259953 0.000000 0.044227 )
(0.121872 0.000000 0.000000 0.129953 0.000000 0.022105 )
(0.251872 0.000000 0.000000 0.259938 0.000000 0.044221 )
(0.672603 0.000000 0.000000 0.259969 0.000000 0.044233 )
(0.260000 0.000000 0.000000 0.195000 0.000000 0.033183 )
(0.260000 0.000000 0.000000 0.260000 0.000000 0.044244 )
(0.130000 0.000000 0.000000 0.130000 0.000000 0.022122 )
(0.000000 0.000000 0.000000 0.000000 0.000000 0.000000 )
(0.260000 0.000000 0.000000 0.260000 0.000000 0.044244 )
(0.000000 0.000000 0.000000 0.000000 0.000000 0.000000 )
(0.000000 0.000000 0.000000 0.000000 0.000000 0.000000 )
(0.000000 0.000000 0.000000 0.000000 0.000000 0.000000 )
(0.130000 0.000000 0.000000 0.130000 0.000000 0.022122 )
(0.130000 0.000000 0.000000 0.130000 0.000000 0.022122 )
(0.260000 0.000000 0.000000 0.195000 0.000000 0.033183 )
(0.260000 0.000000 0.000000 0.260000 0.000000 0.044244 )
(0.000000 0.000000 0.000000 0.000000 0.000000 0.000000 )
(0.260000 0.000000 0.000000 0.260000 0.000000 0.044244 )
(0.260000 0.000000 0.000000 0.260000 0.000000 0.044244 )
(0.130000 0.000000 0.000000 0.546604 0.000000 0.022122 )
(0.195000 0.000000 0.000000 0.259953 0.000000 0.033183 )
(0.000000 0.000000 0.000000 0.000000 0.000000 0.000000 )
(0.195000 0.000000 0.000000 0.259938 0.000000 0.033183 )
(0.195000 0.000000 0.000000 0.259969 0.000000 0.033183 )
(0.576666 0.000000 0.000000 0.610898 0.000000 0.137327 )
(0.159999 0.000000 0.000000 0.259424 0.000000 0.044227 )
(0.029999 0.000000 0.000000 0.129424 0.000000 0.022105 )
(0.159999 0.000000 0.000000 0.259232 0.000000 0.044221 )
(0.626666 0.000000 0.000000 0.259616 0.000000 0.044233 )
(0.260000 0.000000 0.000000 0.195000 0.000000 0.033183 )
(0.260000 0.000000 0.000000 0.260000 0.000000 0.044244 )
(0.130000 0.000000 0.000000 0.130000 0.000000 0.022122 )
(0.000000 0.000000 0.000000 0.000000 0.000000 0.000000 )
(0.260000 0.000000 0.000000 0.260000 0.000000 0.044244 )
(0.000000 0.000000 0.000000 0.000000 0.000000 0.000000 )
(0.000000 0.000000 0.000000 0.000000 0.000000 0.000000 )
(0.000000 0.000000 0.000000 0.000000 0.000000 0.000000 )
(0.130000 0.000000 0.000000 0.130000 0.000000 0.022122 )
(0.130000 0.000000 0.000000 0.130000 0.000000 0.022122 )
(0.260000 0.000000 0.000000 0.195000 0.000000 0.033183 )
(0.260000 0.000000 0.000000 0.260000 0.000000 0.044244 )
(0.000000 0.000000 0.000000 0.000000 0.000000 0.000000 )
(0.260000 0.000000 0.000000 0.260000 0.000000 0.044244 )
(0.260000 0.000000 0.000000 0.260000 0.000000 0.044244 )
(0.129999 0.000000 0.000000 0.545899 0.000000 0.022122 )
(0.194999 0.000000 0.000000 0.259424 0.000000 0.033183 )
(0.000000 0.000000 0.000000 0.000000 0.000000 0.000000 )
(0.194999 0.000000 0.000000 0.259232 0.000000 0.033183 )
(0.195000 0.000000 0.000000 0.259616 0.000000 0.033183 )
(0.537913 0.000000 0.000000 0.610601 0.000000 0.137311 )
(0.121246 0.000000 0.000000 0.259200 0.000000 0.044215 )
(0.000000 0.000000 0.000000 0.129201 0.000000 0.022093 )
(0.121246 0.000000 0.000000 0.258934 0.000000 0.044206 )
(0.607290 0.000000 0.000000 0.259467 0.000000 0.044225 )
(0.260000 0.000000 0.000000 0.195000 0.000000 0.033183 )
(0.260000 0.000000 0.000000 0.260000 0.000000 0.044244 )
(0.130000 0.000000 0.000000 0.130000 0.000000 0.022122 )
(0.000000 0.000000 0.000000 0.000000 0.000000 0.000000 )
(0.260000 0.000000 0.000000 0.260000 0.000000 0.044244 )
(0.000000 0.000000 0.000000 0.000000 0.000000 0.000000 )
(0.000000 0.000000 0.000000 0.000000 0.000000 0.000000 )
(0.000000 0.000000 0.000000 0.000000 0.000000 0.000000 )
(0.130000 0.000000 0.000000 0.130000 0.000000 0.022122 )
(0.130000 0.000000 0.000000 0.130000 0.000000 0.022122 )
(0.260000 0.000000 0.000000 0.195000 0.000000 0.033183 )
(0.260000 0.000000 0.000000 0.260000 0.000000 0.044244 )
(0.000000 0.000000 0.000000 0.000000 0.000000 0.000000 )
(0.260000 0.000000 0.000000 0.260000 0.000000 0.044244 )
(0.260000 0.000000 0.000000 0.260000 0.000000 0.044244 )
(0.129998 0.000000 0.000000 0.545601 0.000000 0.022122 )
(0.194998 0.000000 0.000000 0.259200 0.000000 0.033183 )
(0.000000 0.000000 0.000000 0.000000 0.000000 0.000000 )
(0.194998 0.000000 0.000000 0.258934 0.000000 0.033183 )
(0.194999 0.000000 0.000000 0.259467 0.000000 0.033183 )
(0.507778 0.000000 0.000000 0.624801 0.000000 1.041396 )
(0.091112 0.000000 0.000000 0.278263 0.000000 0.833299 )
(0.000000 0.000000 0.000000 0.151145 0.000000 0.833299 )
(0.091112 0.000000 0.000000 0.277939 0.000000 0.833287 )
(0.607342 0.000000 0.000000 0.274714 0.000000 0.912477 )
(0.260490 0.000000 0.000000 0.215680 0.000000 0.728930 )
(0.260490 0.000000 0.000000 0.279240 0.000000 0.416667 )
(0.133370 0.000000 0.000000 0.152120 0.000000 0.416667 )
(0.008625 0.000000 0.000000 0.008625 0.000000 0.079167 )
(0.279240 0.000000 0.000000 0.260490 0.000000 0.416667 )
(0.000000 0.000000 0.000000 0.025000 0.000000 0.416667 )
(0.000000 0.000000 0.000000 0.025000 0.000000 0.000000 )
(0.000000 0.000000 0.000000 0.025000 0.000000 0.000000 )
(0.152120 0.000000 0.000000 0.135745 0.000000 0.416667 )
(0.152120 0.000000 0.000000 0.133370 0.000000 0.416667 )
(0.260490 0.000000 0.000000 0.215680 0.000000 0.728930 )
(0.275365 0.000000 0.000000 0.275365 0.000000 0.495834 )
(0.014875 0.000000 0.000000 0.000000 0.000000 0.000000 )
(0.279240 0.000000 0.000000 0.260490 0.000000 0.416667 )
(0.279240 0.000000 0.000000 0.260490 0.000000 0.416667 )
(0.133368 0.000000 0.000000 0.542485 0.000000 0.416667 )
(0.215678 0.000000 0.000000 0.259513 0.000000 0.416667 )
(0.024998 0.000000 0.000000 0.000000 0.000000 0.000000 )
(0.215678 0.000000 0.000000 0.259189 0.000000 0.416667 )
(0.215679 0.000000 0.000000 0.259839 0.000000 0.416667 )
(0.907067 0.000000 0.000000 0.928867 0.000000 1.041667 )
(0.294567 0.000000 0.000000 0.616367 0.000000 0.729167 )
(0.154167 0.000000 0.000000 0.416667 0.000000 0.416667 )
(0.294567 0.000000 0.000000 0.616367 0.000000 0.729167 )
(0.953867 0.000000 0.000000 0.616367 0.000000 0.729167 )
(0.653867 0.000000 0.000000 0.303867 0.000000 0.833334 )
(0.237200 0.000000 0.000000 0.199700 0.000000 0.416667 )
(0.050000 0.000000 0.000000 0.000000 0.000000 0.000000 )
(0.237200 0.000000 0.000000 0.199700 0.000000 0.416667 )
(0.585467 0.000000 0.000000 0.189134 0.000000 0.416166 )
(0.560267 0.000000 0.000000 0.210267 0.000000 0.833334 )
(0.143600 0.000000 0.000000 0.106100 0.000000 0.416667 )
(0.050000 0.000000 0.000000 0.000000 0.000000 0.000000 )
(0.143600 0.000000 0.000000 0.106100 0.000000 0.416667 )
(0.628667 0.000000 0.000000 0.199700 0.000000 0.417167 )
(0.653867 0.000000 0.000000 0.303867 0.000000 0.833334 )
(0.237200 0.000000 0.000000 0.199700 0.000000 0.416667 )
(0.050000 0.000000 0.000000 0.000000 0.000000 0.000000 )
(0.237200 0.000000 0.000000 0.199700 0.000000 0.416667 )
(0.653867 0.000000 0.000000 0.199700 0.000000 0.416667 )
(0.607067 0.000000 0.000000 0.928867 0.000000 0.833334 )
(0.190400 0.000000 0.000000 0.616367 0.000000 0.416667 )
(0.050000 0.000000 0.000000 0.416667 0.000000 0.000000 )
(0.190400 0.000000 0.000000 0.616367 0.000000 0.416667 )
(0.560267 0.000000 0.000000 0.522767 0.000000 0.416667 )
(0.603539 0.000000 0.000000 0.676604 0.000000 0.137327 )
(0.186872 0.000000 0.000000 0.259953 0.000000 0.033166 )
(0.000000 0.000000 0.000000 0.000000 0.000000 0.000000 )
(0.186872 0.000000 0.000000 0.259938 0.000000 0.033160 )
(0.672603 0.000000 0.000000 0.259969 0.000000 0.044233 )
(0.260000 0.000000 0.000000 0.260000 0.000000 0.044244 )
(0.260000 0.000000 0.000000 0.260000 0.000000 0.044244 )
(0.000000 0.000000 0.000000 0.000000 0.000000 0.000000 )
(0.260000 0.000000 0.000000 0.260000 0.000000 0.044244 )
(0.165000 0.000000 0.000000 0.245326 0.000000 0.026922 )
(0.130000 0.000000 0.000000 0.130000 0.000000 0.022122 )
(0.130000 0.000000 0.000000 0.130000 0.000000 0.022122 )
(0.000000 0.000000 0.000000 0.000000 0.000000 0.000000 )
(0.130000 0.000000 0.000000 0.130000 0.000000 0.022122 )
(0.225000 0.000000 0.000000 0.260000 0.000000 0.039444 )
(0.260000 0.000000 0.000000 0.260000 0.000000 0.044244 )
(0.260000 0.000000 0.000000 0.260000 0.000000 0.044244 )
(0.000000 0.000000 0.000000 0.000000 0.000000 0.000000 )
(0.260000 0.000000 0.000000 0.260000 0.000000 0.044244 )
(0.260000 0.000000 0.000000 0.260000 0.000000 0.044244 )
(0.195000 0.000000 0.000000 0.676604 0.000000 0.033183 )
(0.195000 0.000000 0.000000 0.259953 0.000000 0.033183 )
(0.000000 0.000000 0.000000 0.000000 0.000000 0.000000 )
(0.195000 0.000000 0.000000 0.259938 0.000000 0.033183 )
(0.130000 0.000000 0.000000 0.129969 0.000000 0.022122 )
(0.511665 0.000000 0.000000 0.675899 0.000000 0.137327 )
(0.094999 0.000000 0.000000 0.259424 0.000000 0.033166 )
(0.000000 0.000000 0.000000 0.000000 0.000000 0.000000 )
(0.094999 0.000000 0.000000 0.259232 0.000000 0.033160 )
(0.626666 0.000000 0.000000 0.259616 0.000000 0.044233 )
(0.260000 0.000000 0.000000 0.260000 0.000000 0.044244 )
(0.260000 0.000000 0.000000 0.260000 0.000000 0.044244 )
(0.000000 0.000000 0.000000 0.000000 0.000000 0.000000 )
(0.260000 0.000000 0.000000 0.260000 0.000000 0.044244 )
(0.165000 0.000000 0.000000 0.245326 0.000000 0.026922 )
(0.130000 0.000000 0.000000 0.130000 0.000000 0.022122 )
(0.130000 0.000000 0.000000 0.130000 0.000000 0.022122 )
(0.000000 0.000000 0.000000 0.000000 0.000000 0.000000 )
(0.130000 0.000000 0.000000 0.130000 0.000000 0.022122 )
(0.225000 0.000000 0.000000 0.260000 0.000000 0.039444 )
(0.260000 0.000000 0.000000 0.260000 0.000000 0.044244 )
(0.260000 0.000000 0.000000 0.260000 0.000000 0.044244 )
(0.000000 0.000000 0.000000 0.000000 0.000000 0.000000 )
(0.260000 0.000000 0.000000 0.260000 0.000000 0.044244 )
(0.260000 0.000000 0.000000 0.260000 0.000000 0.044244 )
(0.194999 0.000000 0.000000 0.675899 0.000000 0.033183 )
(0.194999 0.000000 0.000000 0.259424 0.000000 0.033183 )
(0.000000 0.000000 0.000000 0.000000 0.000000 0.000000 )
(0.194999 0.000000 0.000000 0.259232 0.000000 0.033183 )
(0.129999 0.000000 0.000000 0.129616 0.000000 0.022122 )
(0.472913 0.000000 0.000000 0.675601 0.000000 0.137311 )
(0.056246 0.000000 0.000000 0.259200 0.000000 0.033154 )
(0.000000 0.000000 0.000000 0.000000 0.000000 0.000000 )
(0.056246 0.000000 0.000000 0.258934 0.000000 0.033145 )
(0.607290 0.000000 0.000000 0.259467 0.000000 0.044225 )
(0.260000 0.000000 0.000000 0.260000 0.000000 0.044244 )
(0.260000 0.000000 0.000000 0.260000 0.000000 0.044244 )
(0.000000 0.000000 0.000000 0.000000 0.000000 0.000000 )
(0.260000 0.000000 0.000000 0.260000 0.000000 0.044244 )
(0.165000 0.000000 0.000000 0.245326 0.000000 0.026922 )
(0.130000 0.000000 0.000000 0.130000 0.000000 0.022122 )
(0.130000 0.000000 0.000000 0.130000 0.000000 0.022122 )
(0.000000 0.000000 0.000000 0.000000 0.000000 0.000000 )
(0.130000 0.000000 0.000000 0.130000 0.000000 0.022122 )
(0.225000 0.000000 0.000000 0.260000 0.000000 0.039444 )
(0.260000 0.000000 0.000000 0.260000 0.000000 0.044244 )
(0.260000 0.000000 0.000000 0.260000 0.000000 0.044244 )
(0.000000 0.000000 0.000000 0.000000 0.000000 0.000000 )
(0.260000 0.000000 0.000000 0.260000 0.000000 0.044244 )
(0.260000 0.000000 0.000000 0.260000 0.000000 0.044244 )
(0.194998 0.000000 0.000000 0.675601 0.000000 0.033183 )
(0.194998 0.000000 0.000000 0.259200 0.000000 0.033183 )
(0.000000 0.000000 0.000000 0.000000 0.000000 0.000000 )
(0.194998 0.000000 0.000000 0.258934 0.000000 0.033183 )
(0.129999 0.000000 0.000000 0.129467 0.000000 0.022122 )
(0.456718 0.000000 0.000000 0.675855 0.000000 1.041384 )
(0.046302 0.000000 0.000000 0.259513 0.000000 0.728896 )
(0.000000 0.000000 0.000000 0.000000 0.000000 0.416632 )
(0.046301 0.000000 0.000000 0.259189 0.000000 0.728884 )
(0.648717 0.000000 0.000000 0.259839 0.000000 0.729144 )
(0.279240 0.000000 0.000000 0.260490 0.000000 0.833334 )
(0.279240 0.000000 0.000000 0.260490 0.000000 0.416667 )
(0.025000 0.000000 0.000000 0.000000 0.000000 0.000000 )
(0.279240 0.000000 0.000000 0.260490 0.000000 0.416667 )
(0.244763 0.000000 0.000000 0.245815 0.000000 0.416166 )
(0.152120 0.000000 0.000000 0.133370 0.000000 0.833334 )
(0.152120 0.000000 0.000000 0.133370 0.000000 0.416667 )
(0.025000 0.000000 0.000000 0.000000 0.000000 0.000000 )
(0.152120 0.000000 0.000000 0.133370 0.000000 0.416667 )
(0.303263 0.000000 0.000000 0.260490 0.000000 0.417167 )
(0.279240 0.000000 0.000000 0.260490 0.000000 0.833334 )
(0.279240 0.000000 0.000000 0.260490 0.000000 0.416667 )
(0.025000 0.000000 0.000000 0.000000 0.000000 0.000000 )
(0.279240 0.000000 0.000000 0.260490 0.000000 0.416667 )
(0.337573 0.000000 0.000000 0.260490 0.000000 0.416667 )
(0.215678 0.000000 0.000000 0.675855 0.000000 0.833334 )
(0.215678 0.000000 0.000000 0.259513 0.000000 0.416667 )
(0.024998 0.000000 0.000000 0.000000 0.000000 0.000000 )
(0.215677 0.000000 0.000000 0.259189 0.000000 0.416667 )
(0.210452 0.000000 0.000000 0.132719 0.000000 0.416667 )
(0.766667 0.000000 0.000000 0.766667 0.000000 0.729167 )
(0.104167 0.000000 0.000000 0.466667 0.000000 0.416667 )
(0.104167 0.000000 0.000000 0.466667 0.000000 0.416667 )
(0.104167 0.000000 0.000000 0.466667 0.000000 0.416667 )
(0.729167 0.000000 0.000000 0.466667 0.000000 0.416667 )
(0.466667 0.000000 0.000000 0.104167 0.000000 0.416667 )
(0.000000 0.000000 0.000000 0.000000 0.000000 0.000000 )
(0.000000 0.000000 0.000000 0.000000 0.000000 0.000000 )
(0.000000 0.000000 0.000000 0.000000 0.000000 0.000000 )
(0.416667 0.000000 0.000000 0.000000 0.000000 0.000000 )
(0.466667 0.000000 0.000000 0.104167 0.000000 0.416667 )