/*--------------------------------*- C++ -*----------------------------------*\
| =========                 |                                                 |
| \\      /  F ield         | OpenFOAM: The Open Source CFD Toolbox           |
|  \\    /   O peration     | Version:  dev                                   |
|   \\  /    A nd           | Web:      www.OpenFOAM.com                      |
|    \\/     M anipulation  |                                                 |
\*---------------------------------------------------------------------------*/
FoamFile
{
    version     2.0;
    format      ascii;
    class       volSymmTensorField;
    location    "0";
    object      CR;
}
// * * * * * * * * * * * * * * * * * * * * * * * * * * * * * * * * * * * * * //


dimensions	[0 -1 0 0 0 0 0];

internalField   nonuniform List<symmTensor>
8025
(
(98.997697 0.000000 0.000000 77.711245 0.000000 30.754852 )
(0.015246 0.000000 0.000000 143923883390.640991 0.000000 1125966.565022 )
(0.012289 0.000000 0.000000 399230356.276276 0.000000 4775.937563 )
(13.290695 0.000000 0.000000 7.996499 0.000000 10.003683 )
(5.215724 0.000000 0.000000 6.291483 0.000000 7.908581 )
(176868971146.300934 0.000000 0.000000 0.000000 0.000000 188123113389.597656 )
(0.029204 0.000000 0.000000 0.000000 0.000000 0.409114 )
(0.005865 0.000000 0.000000 79839302.865378 0.000000 0.477199 )
(199.177471 0.000000 0.000000 1.828904 0.000000 5.289226 )
(4.243258 0.000000 0.000000 1.239037 0.000000 2.416286 )
(295484553.654288 0.000000 0.000000 0.000000 0.000000 364208989.185954 )
(62038091.181350 0.000000 0.000000 0.000000 0.000000 0.518006 )
(0.019886 0.000000 0.000000 0.006456 0.000000 0.459670 )
(0.247275 0.000000 0.000000 0.163028 0.000000 2.719679 )
(2.023323 0.000000 0.000000 0.157680 0.000000 0.754109 )
(7.467954 0.000000 0.000000 72.367230 0.000000 9.714295 )
(1.702286 0.000000 0.000000 722.076485 0.000000 0.520517 )
(0.157680 0.000000 0.000000 321496940.220642 0.000000 0.625001 )
(1.631858 0.000000 0.000000 1.897863 0.000000 2.624698 )
(3.124398 0.000000 0.000000 1.386489 0.000000 4.005168 )
(6.291484 0.000000 0.000000 5.215724 0.000000 9.650877 )
(1.239037 0.000000 0.000000 4.243258 0.000000 0.662734 )
(0.157680 0.000000 0.000000 2.023323 0.000000 0.625001 )
(1.386490 0.000000 0.000000 3.124330 0.000000 3.195271 )
(1.959017 0.000000 0.000000 1.959017 0.000000 0.625000 )
(20280640973.604568 0.000000 0.000000 31141420842.365803 0.000000 0.000000 )
(0.000000 0.000000 0.000000 0.359299 0.000000 0.000000 )
(0.000000 0.000000 0.000000 180880455.394619 0.000000 0.000000 )
(173.828794 0.000000 0.000000 2.451733 0.000000 0.000000 )
(4.962736 0.000000 0.000000 1.474561 0.000000 0.000000 )
(0.388515 0.000000 0.000000 0.000000 0.000000 0.000000 )
(0.000000 0.000000 0.000000 0.000000 0.000000 0.000000 )
(0.000000 0.000000 0.000000 109872940.075453 0.000000 0.000000 )
(72.749298 0.000000 0.000000 2.278415 0.000000 0.000000 )
(1.685464 0.000000 0.000000 1.523318 0.000000 0.000000 )
(147761321.221092 0.000000 0.000000 0.000000 0.000000 0.000000 )
(85155017.692195 0.000000 0.000000 0.000000 0.000000 0.000000 )
(0.000000 0.000000 0.000000 0.000000 0.000000 0.000000 )
(0.269888 0.000000 0.000000 0.009141 0.000000 0.000000 )
(0.316088 0.000000 0.000000 0.013828 0.000000 0.000000 )
(2.084938 0.000000 0.000000 110.349569 0.000000 0.000000 )
(2.126692 0.000000 0.000000 72.749298 0.000000 0.000000 )
(0.009375 0.000000 0.000000 0.437856 0.000000 0.000000 )
(2.084938 0.000000 0.000000 2.406363 0.000000 0.000000 )
(1.570367 0.000000 0.000000 1.523318 0.000000 0.000000 )
(1.481428 0.000000 0.000000 5.227806 0.000000 0.000000 )
(1.542838 0.000000 0.000000 1.716379 0.000000 0.000000 )
(0.000000 0.000000 0.000000 0.315753 0.000000 0.000000 )
(1.550039 0.000000 0.000000 1.585496 0.000000 0.000000 )
(0.380302 0.000000 0.000000 0.391444 0.000000 0.000000 )
(471.028412 0.000000 0.000000 30848767609.828957 0.000000 0.000000 )
(0.000000 0.000000 0.000000 0.082625 0.000000 0.000000 )
(0.000000 0.000000 0.000000 137517759.146103 0.000000 0.000000 )
(166521849872.917694 0.000000 0.000000 2.990543 0.000000 0.000000 )
(5.230055 0.000000 0.000000 1.625423 0.000000 0.000000 )
(0.036228 0.000000 0.000000 0.000000 0.000000 0.000000 )
(0.000000 0.000000 0.000000 0.000000 0.000000 0.000000 )
(0.000000 0.000000 0.000000 119131445.818914 0.000000 0.000000 )
(72.749298 0.000000 0.000000 2.278415 0.000000 0.000000 )
(1.685464 0.000000 0.000000 1.523318 0.000000 0.000000 )
(107524163.385833 0.000000 0.000000 0.000000 0.000000 0.000000 )
(92389057.097631 0.000000 0.000000 0.000000 0.000000 0.000000 )
(0.000000 0.000000 0.000000 0.000000 0.000000 0.000000 )
(0.292500 0.000000 0.000000 0.000000 0.000000 0.000000 )
(0.219375 0.000000 0.000000 0.000000 0.000000 0.000000 )
(2.084938 0.000000 0.000000 110.349569 0.000000 0.000000 )
(2.126692 0.000000 0.000000 72.749298 0.000000 0.000000 )
(0.000000 0.000000 0.000000 0.304219 0.000000 0.000000 )
(2.084938 0.000000 0.000000 2.406363 0.000000 0.000000 )
(1.423610 0.000000 0.000000 1.523318 0.000000 0.000000 )
(1.629441 0.000000 0.000000 6.314099 0.000000 0.000000 )
(1.629443 0.000000 0.000000 1.844575 0.000000 0.000000 )
(0.000000 0.000000 0.000000 0.218733 0.000000 0.000000 )
(1.629440 0.000000 0.000000 1.469403 0.000000 0.000000 )
(0.291039 0.000000 0.000000 0.313799 0.000000 0.000000 )
(118.492575 0.000000 0.000000 30795565451.556770 0.000000 0.000000 )
(0.000000 0.000000 0.000000 0.082166 0.000000 0.000000 )
(0.000000 0.000000 0.000000 139691130.795487 0.000000 0.000000 )
(153291017594.242645 0.000000 0.000000 2.987638 0.000000 0.000000 )
(4.862325 0.000000 0.000000 1.624503 0.000000 0.000000 )
(0.055379 0.000000 0.000000 0.000000 0.000000 0.000000 )
(0.000000 0.000000 0.000000 0.000000 0.000000 0.000000 )
(0.000000 0.000000 0.000000 121276843.525491 0.000000 0.000000 )
(72.749298 0.000000 0.000000 2.278415 0.000000 0.000000 )
(1.685464 0.000000 0.000000 1.523318 0.000000 0.000000 )
(109638002.750943 0.000000 0.000000 0.000000 0.000000 0.000000 )
(94248232.213088 0.000000 0.000000 0.000000 0.000000 0.000000 )
(0.000000 0.000000 0.000000 0.000000 0.000000 0.000000 )
(0.292885 0.000000 0.000000 0.002285 0.000000 0.000000 )
(0.218565 0.000000 0.000000 0.003457 0.000000 0.000000 )
(2.084938 0.000000 0.000000 110.349569 0.000000 0.000000 )
(2.126692 0.000000 0.000000 72.749298 0.000000 0.000000 )
(0.003515 0.000000 0.000000 0.304311 0.000000 0.000000 )
(2.084938 0.000000 0.000000 2.406363 0.000000 0.000000 )
(1.423669 0.000000 0.000000 1.523318 0.000000 0.000000 )
(1.629437 0.000000 0.000000 6.308909 0.000000 0.000000 )
(1.626325 0.000000 0.000000 1.842935 0.000000 0.000000 )
(0.000000 0.000000 0.000000 0.217413 0.000000 0.000000 )
(1.625458 0.000000 0.000000 1.468230 0.000000 0.000000 )
(0.278561 0.000000 0.000000 0.315207 0.000000 0.000000 )
(71.382313 0.000000 0.000000 1577970798.049374 0.000000 27451.574547 )
(0.000000 0.000000 0.000000 534624929.557161 0.000000 16.437589 )
(0.000000 0.000000 0.000000 35001964.458106 0.000000 0.084478 )
(198024434.583996 0.000000 0.000000 3.162228 0.000000 5.063296 )
(4.603718 0.000000 0.000000 1.753652 0.000000 3.760613 )
(482235810.333728 0.000000 0.000000 64162662.466142 0.000000 0.039066 )
(0.000000 0.000000 0.000000 0.000000 0.000000 0.019535 )
(58182232.665587 0.000000 0.000000 2002632.883247 0.000000 0.084479 )
(69.106266 0.000000 0.000000 2.366893 0.000000 0.679980 )
(1.616036 0.000000 0.000000 1.548879 0.000000 0.744341 )
(27574092.241458 0.000000 0.000000 35912620.994469 0.000000 0.202404 )
(6386328.055593 0.000000 0.000000 30541622.981402 0.000000 0.128427 )
(89.208386 0.000000 0.000000 0.000000 0.000000 0.134292 )
(0.343482 0.000000 0.000000 0.039735 0.000000 0.229873 )
(0.218852 0.000000 0.000000 0.038440 0.000000 0.301731 )
(2.990385 0.000000 0.000000 83.486372 0.000000 4.604409 )
(2.205021 0.000000 0.000000 57.455284 0.000000 0.684984 )
(0.114997 0.000000 0.000000 0.204752 0.000000 0.625000 )
(2.095157 0.000000 0.000000 2.401600 0.000000 1.299905 )
(1.562223 0.000000 0.000000 1.569397 0.000000 1.589141 )
(2.626149 0.000000 0.000000 7.370784 0.000000 8.004732 )
(1.704385 0.000000 0.000000 1.828205 0.000000 0.877382 )
(0.038429 0.000000 0.000000 0.319660 0.000000 0.625000 )
(1.757550 0.000000 0.000000 1.755213 0.000000 1.889045 )
(0.253217 0.000000 0.000000 0.389501 0.000000 0.129097 )
(4.889000 0.000000 0.000000 8.669946 0.000000 6.786980 )
(1.528241 0.000000 0.000000 7.637388 0.000000 7.589298 )
(0.698727 0.000000 0.000000 6.169957 0.000000 6.842083 )
(1.528241 0.000000 0.000000 7.600457 0.000000 6.805295 )
(5.215724 0.000000 0.000000 6.291483 0.000000 7.740731 )
(4.408605 0.000000 0.000000 1.378064 0.000000 2.436258 )
(1.453338 0.000000 0.000000 1.724053 0.000000 1.446184 )
(0.648989 0.000000 0.000000 0.872544 0.000000 1.809335 )
(1.453338 0.000000 0.000000 1.713476 0.000000 1.446184 )
(4.243258 0.000000 0.000000 1.239037 0.000000 2.416286 )
(2.023323 0.000000 0.000000 0.151194 0.000000 1.011662 )
(0.237900 0.000000 0.000000 0.157680 0.000000 0.675709 )
(0.118950 0.000000 0.000000 0.153792 0.000000 0.661812 )
(0.237900 0.000000 0.000000 0.153792 0.000000 0.705006 )
(2.023323 0.000000 0.000000 0.157680 0.000000 0.691109 )
(3.723677 0.000000 0.000000 1.529985 0.000000 3.806044 )
(1.400876 0.000000 0.000000 1.845680 0.000000 3.094462 )
(0.639974 0.000000 0.000000 1.017868 0.000000 3.468973 )
(1.407724 0.000000 0.000000 1.845680 0.000000 3.094462 )
(3.405995 0.000000 0.000000 1.386489 0.000000 4.005168 )
(4.469854 0.000000 0.000000 5.077943 0.000000 1.818713 )
(0.888550 0.000000 0.000000 4.484755 0.000000 1.689682 )
(1.248614 0.000000 0.000000 4.971008 0.000000 1.312870 )
(1.453338 0.000000 0.000000 5.062273 0.000000 1.279397 )
(3.163865 0.000000 0.000000 3.585681 0.000000 2.556132 )
(4.916517 0.000000 0.000000 4.646180 0.000000 0.000000 )
(2.035467 0.000000 0.000000 2.155143 0.000000 0.000000 )
(0.788326 0.000000 0.000000 0.963311 0.000000 0.000000 )
(1.956621 0.000000 0.000000 2.165548 0.000000 0.000000 )
(4.962736 0.000000 0.000000 1.474561 0.000000 0.000000 )
(1.685464 0.000000 0.000000 1.523317 0.000000 0.000000 )
(2.037862 0.000000 0.000000 2.126692 0.000000 0.000000 )
(0.906534 0.000000 0.000000 0.963535 0.000000 0.000000 )
(2.037862 0.000000 0.000000 2.111932 0.000000 0.000000 )
(1.685464 0.000000 0.000000 1.523318 0.000000 0.000000 )
(0.316087 0.000000 0.000000 0.014063 0.000000 0.000000 )
(0.265200 0.000000 0.000000 0.014063 0.000000 0.000000 )
(0.132600 0.000000 0.000000 0.014063 0.000000 0.000000 )
(0.265200 0.000000 0.000000 0.014063 0.000000 0.000000 )
(0.316088 0.000000 0.000000 0.014063 0.000000 0.000000 )
(1.685464 0.000000 0.000000 1.523318 0.000000 0.000000 )
(2.027145 0.000000 0.000000 2.126692 0.000000 0.000000 )
(0.951319 0.000000 0.000000 0.963535 0.000000 0.000000 )
(2.038542 0.000000 0.000000 2.111932 0.000000 0.000000 )
(1.653762 0.000000 0.000000 1.523318 0.000000 0.000000 )
(2.111105 0.000000 0.000000 3.776616 0.000000 0.000000 )
(1.271883 0.000000 0.000000 1.212991 0.000000 0.000000 )
(1.762103 0.000000 0.000000 1.888584 0.000000 0.000000 )
(2.050099 0.000000 0.000000 2.158954 0.000000 0.000000 )
(0.947220 0.000000 0.000000 0.947077 0.000000 0.000000 )
(4.239845 0.000000 0.000000 4.437816 0.000000 0.000000 )
(1.541211 0.000000 0.000000 2.471861 0.000000 0.000000 )
(0.363214 0.000000 0.000000 0.959326 0.000000 0.000000 )
(1.323699 0.000000 0.000000 2.264450 0.000000 0.000000 )
(5.230055 0.000000 0.000000 1.625423 0.000000 0.000000 )
(1.685464 0.000000 0.000000 1.523317 0.000000 0.000000 )
(2.033529 0.000000 0.000000 2.126692 0.000000 0.000000 )
(0.895798 0.000000 0.000000 0.963535 0.000000 0.000000 )
(2.033529 0.000000 0.000000 2.126692 0.000000 0.000000 )
(1.685464 0.000000 0.000000 1.523318 0.000000 0.000000 )
(0.219375 0.000000 0.000000 0.000000 0.000000 0.000000 )
(0.292500 0.000000 0.000000 0.000000 0.000000 0.000000 )
(0.146250 0.000000 0.000000 0.000000 0.000000 0.000000 )
(0.292500 0.000000 0.000000 0.000000 0.000000 0.000000 )
(0.219375 0.000000 0.000000 0.000000 0.000000 0.000000 )
(1.591958 0.000000 0.000000 1.523318 0.000000 0.000000 )
(2.063483 0.000000 0.000000 2.126692 0.000000 0.000000 )
(0.963535 0.000000 0.000000 0.963535 0.000000 0.000000 )
(2.076282 0.000000 0.000000 2.126692 0.000000 0.000000 )
(1.505433 0.000000 0.000000 1.523318 0.000000 0.000000 )
(2.413789 0.000000 0.000000 3.765394 0.000000 0.000000 )
(1.292621 0.000000 0.000000 1.244446 0.000000 0.000000 )
(1.817048 0.000000 0.000000 2.027231 0.000000 0.000000 )
(2.159578 0.000000 0.000000 2.294781 0.000000 0.000000 )
(0.963531 0.000000 0.000000 0.960244 0.000000 0.000000 )
(3.619993 0.000000 0.000000 4.473208 0.000000 0.000000 )
(1.321471 0.000000 0.000000 2.470047 0.000000 0.000000 )
(0.202774 0.000000 0.000000 0.958257 0.000000 0.000000 )
(1.039348 0.000000 0.000000 2.274847 0.000000 0.000000 )
(4.862326 0.000000 0.000000 1.624503 0.000000 0.000000 )
(1.685464 0.000000 0.000000 1.523317 0.000000 0.000000 )
(2.006247 0.000000 0.000000 2.126692 0.000000 0.000000 )
(0.884619 0.000000 0.000000 0.963535 0.000000 0.000000 )
(2.006247 0.000000 0.000000 2.126692 0.000000 0.000000 )
(1.685464 0.000000 0.000000 1.523318 0.000000 0.000000 )
(0.276573 0.000000 0.000000 0.003516 0.000000 0.000000 )
(0.291420 0.000000 0.000000 0.003516 0.000000 0.000000 )
(0.145710 0.000000 0.000000 0.003516 0.000000 0.000000 )
(0.291420 0.000000 0.000000 0.003516 0.000000 0.000000 )
(0.218565 0.000000 0.000000 0.003516 0.000000 0.000000 )
(1.592092 0.000000 0.000000 1.523318 0.000000 0.000000 )
(2.063653 0.000000 0.000000 2.126692 0.000000 0.000000 )
(0.963535 0.000000 0.000000 0.963535 0.000000 0.000000 )
(2.076453 0.000000 0.000000 2.126692 0.000000 0.000000 )
(1.505932 0.000000 0.000000 1.523318 0.000000 0.000000 )
(2.392865 0.000000 0.000000 3.833570 0.000000 0.000000 )
(1.283890 0.000000 0.000000 1.243235 0.000000 0.000000 )
(1.805104 0.000000 0.000000 2.047621 0.000000 0.000000 )
(2.144832 0.000000 0.000000 2.341169 0.000000 0.000000 )
(0.963529 0.000000 0.000000 0.959531 0.000000 0.000000 )
(3.835371 0.000000 0.000000 5.672885 0.000000 2.866177 )
(0.962832 0.000000 0.000000 2.627281 0.000000 3.617261 )
(0.094731 0.000000 0.000000 1.064908 0.000000 3.282947 )
(0.590963 0.000000 0.000000 2.621253 0.000000 3.193440 )
(4.603718 0.000000 0.000000 1.753652 0.000000 3.667956 )
(2.526575 0.000000 0.000000 1.559779 0.000000 0.660861 )
(2.045516 0.000000 0.000000 2.059039 0.000000 0.680734 )
(0.929212 0.000000 0.000000 1.009492 0.000000 0.876572 )
(2.045516 0.000000 0.000000 2.039836 0.000000 0.680734 )
(1.616036 0.000000 0.000000 1.548879 0.000000 0.744341 )
(0.625000 0.000000 0.000000 0.038440 0.000000 0.311247 )
(0.303990 0.000000 0.000000 0.038440 0.000000 0.313321 )
(0.206839 0.000000 0.000000 0.038440 0.000000 0.330821 )
(0.340552 0.000000 0.000000 0.038440 0.000000 0.332896 )
(0.218852 0.000000 0.000000 0.038440 0.000000 0.311247 )
(2.474511 0.000000 0.000000 1.585493 0.000000 1.384340 )
(2.063541 0.000000 0.000000 2.089565 0.000000 1.513293 )
(0.924535 0.000000 0.000000 1.033137 0.000000 1.767072 )
(2.063541 0.000000 0.000000 2.069727 0.000000 1.513293 )
(1.577225 0.000000 0.000000 1.569397 0.000000 1.589141 )
(3.487246 0.000000 0.000000 5.220858 0.000000 0.763600 )
(1.318814 0.000000 0.000000 1.530306 0.000000 0.877896 )
(1.895755 0.000000 0.000000 2.442707 0.000000 0.823118 )
(2.205157 0.000000 0.000000 2.926780 0.000000 0.796814 )
(0.956052 0.000000 0.000000 1.207170 0.000000 0.904238 )
(4.889000 0.000000 0.000000 8.669946 0.000000 6.786980 )
(1.528241 0.000000 0.000000 7.637388 0.000000 7.589298 )
(0.698727 0.000000 0.000000 6.169957 0.000000 6.353552 )
(1.494295 0.000000 0.000000 7.637388 0.000000 6.447021 )
(8.155464 0.000000 0.000000 5.990168 0.000000 6.269214 )
(4.408605 0.000000 0.000000 1.378064 0.000000 2.436258 )
(1.453338 0.000000 0.000000 1.724053 0.000000 1.446184 )
(0.648989 0.000000 0.000000 0.869587 0.000000 1.809335 )
(0.194960 0.000000 0.000000 0.189417 0.000000 0.692476 )
(7.637389 0.000000 0.000000 1.408313 0.000000 3.094463 )
(2.023323 0.000000 0.000000 0.151194 0.000000 1.011662 )
(0.245822 0.000000 0.000000 0.157680 0.000000 0.593317 )
(0.065053 0.000000 0.000000 0.157680 0.000000 0.653414 )
(1.014633 0.000000 0.000000 0.653472 0.000000 3.441907 )
(6.169958 0.000000 0.000000 0.639974 0.000000 3.468974 )
(3.423008 0.000000 0.000000 1.529984 0.000000 3.951112 )
(1.552990 0.000000 0.000000 1.697801 0.000000 2.871330 )
(0.090292 0.000000 0.000000 0.251400 0.000000 0.311347 )
(1.845682 0.000000 0.000000 1.407724 0.000000 2.979523 )
(7.600644 0.000000 0.000000 1.408313 0.000000 3.094463 )
(3.102523 0.000000 0.000000 3.924080 0.000000 0.704190 )
(1.239037 0.000000 0.000000 4.064123 0.000000 0.662734 )
(0.157680 0.000000 0.000000 2.023323 0.000000 0.625000 )
(1.386491 0.000000 0.000000 3.701481 0.000000 3.195273 )
(6.128725 0.000000 0.000000 3.623471 0.000000 3.125077 )
(4.916517 0.000000 0.000000 4.646180 0.000000 0.000000 )
(2.035467 0.000000 0.000000 2.155143 0.000000 0.000000 )
(0.788326 0.000000 0.000000 0.963311 0.000000 0.000000 )
(1.875583 0.000000 0.000000 2.165548 0.000000 0.000000 )
(7.102158 0.000000 0.000000 2.006455 0.000000 0.000000 )
(1.685463 0.000000 0.000000 1.523317 0.000000 0.000000 )
(2.037862 0.000000 0.000000 2.126692 0.000000 0.000000 )
(0.906534 0.000000 0.000000 0.958478 0.000000 0.000000 )
(0.187310 0.000000 0.000000 0.205205 0.000000 0.000000 )
(2.126692 0.000000 0.000000 2.041508 0.000000 0.000000 )
(0.316087 0.000000 0.000000 0.014063 0.000000 0.000000 )
(0.269161 0.000000 0.000000 0.014063 0.000000 0.000000 )
(0.069089 0.000000 0.000000 0.076120 0.000000 0.000000 )
(0.958478 0.000000 0.000000 0.910871 0.000000 0.000000 )
(0.963535 0.000000 0.000000 0.952653 0.000000 0.000000 )
(1.653761 0.000000 0.000000 1.523317 0.000000 0.000000 )
(1.999844 0.000000 0.000000 2.017477 0.000000 0.000000 )
(0.007476 0.000000 0.000000 0.271950 0.000000 0.000000 )
(2.111932 0.000000 0.000000 2.038542 0.000000 0.000000 )
(2.126692 0.000000 0.000000 2.126692 0.000000 0.000000 )
(0.954560 0.000000 0.000000 2.646754 0.000000 0.000000 )
(1.542838 0.000000 0.000000 1.716378 0.000000 0.000000 )
(0.000000 0.000000 0.000000 0.315753 0.000000 0.000000 )
(1.550040 0.000000 0.000000 1.727867 0.000000 0.000000 )
(1.473256 0.000000 0.000000 1.606616 0.000000 0.000000 )
(4.239845 0.000000 0.000000 4.437816 0.000000 0.000000 )
(1.541211 0.000000 0.000000 2.471860 0.000000 0.000000 )
(0.363214 0.000000 0.000000 0.959326 0.000000 0.000000 )
(1.295918 0.000000 0.000000 2.330678 0.000000 0.000000 )
(7.403627 0.000000 0.000000 2.122804 0.000000 0.000000 )
(1.685463 0.000000 0.000000 1.523317 0.000000 0.000000 )
(2.033529 0.000000 0.000000 2.126692 0.000000 0.000000 )
(0.895798 0.000000 0.000000 0.963535 0.000000 0.000000 )
(0.172392 0.000000 0.000000 0.219375 0.000000 0.000000 )
(2.126692 0.000000 0.000000 2.076283 0.000000 0.000000 )
(0.219375 0.000000 0.000000 0.000000 0.000000 0.000000 )
(0.292500 0.000000 0.000000 0.000000 0.000000 0.000000 )
(0.073125 0.000000 0.000000 0.073125 0.000000 0.000000 )
(0.963535 0.000000 0.000000 0.913954 0.000000 0.000000 )
(0.963535 0.000000 0.000000 0.963535 0.000000 0.000000 )
(1.505432 0.000000 0.000000 1.523317 0.000000 0.000000 )
(2.020185 0.000000 0.000000 2.020185 0.000000 0.000000 )
(0.000000 0.000000 0.000000 0.292500 0.000000 0.000000 )
(2.126692 0.000000 0.000000 2.076283 0.000000 0.000000 )
(2.126692 0.000000 0.000000 2.126692 0.000000 0.000000 )
(0.963526 0.000000 0.000000 2.310435 0.000000 0.000000 )
(1.629442 0.000000 0.000000 1.741182 0.000000 0.000000 )
(0.000000 0.000000 0.000000 0.218733 0.000000 0.000000 )
(1.629440 0.000000 0.000000 1.648591 0.000000 0.000000 )
(1.629447 0.000000 0.000000 1.854059 0.000000 0.000000 )
(3.619993 0.000000 0.000000 4.473207 0.000000 0.000000 )
(1.321471 0.000000 0.000000 2.470047 0.000000 0.000000 )
(0.202774 0.000000 0.000000 0.958258 0.000000 0.000000 )
(1.047408 0.000000 0.000000 2.340222 0.000000 0.000000 )
(7.840676 0.000000 0.000000 2.211841 0.000000 0.000000 )
(1.685463 0.000000 0.000000 1.523317 0.000000 0.000000 )
(2.006247 0.000000 0.000000 2.126692 0.000000 0.000000 )
(0.884619 0.000000 0.000000 0.963535 0.000000 0.000000 )
(0.145515 0.000000 0.000000 0.220141 0.000000 0.000000 )
(2.126692 0.000000 0.000000 2.077964 0.000000 0.000000 )
(0.276573 0.000000 0.000000 0.003516 0.000000 0.000000 )
(0.292410 0.000000 0.000000 0.003516 0.000000 0.000000 )
(0.073552 0.000000 0.000000 0.075310 0.000000 0.000000 )
(0.963535 0.000000 0.000000 0.916492 0.000000 0.000000 )
(0.963535 0.000000 0.000000 0.963535 0.000000 0.000000 )
(1.505932 0.000000 0.000000 1.523317 0.000000 0.000000 )
(2.026331 0.000000 0.000000 2.026331 0.000000 0.000000 )
(0.001868 0.000000 0.000000 0.293107 0.000000 0.000000 )
(2.126692 0.000000 0.000000 2.076454 0.000000 0.000000 )
(2.126692 0.000000 0.000000 2.126692 0.000000 0.000000 )
(0.963522 0.000000 0.000000 2.334336 0.000000 0.000000 )
(1.625789 0.000000 0.000000 1.739192 0.000000 0.000000 )
(0.000000 0.000000 0.000000 0.217413 0.000000 0.000000 )
(1.626321 0.000000 0.000000 1.646970 0.000000 0.000000 )
(1.629444 0.000000 0.000000 1.853022 0.000000 0.000000 )
(3.835371 0.000000 0.000000 5.672885 0.000000 2.866177 )
(0.962832 0.000000 0.000000 2.627281 0.000000 3.617261 )
(0.094731 0.000000 0.000000 1.064909 0.000000 3.028032 )
(0.618147 0.000000 0.000000 2.621253 0.000000 3.001855 )
(7.758949 0.000000 0.000000 2.200156 0.000000 2.995953 )
(2.526575 0.000000 0.000000 1.559779 0.000000 0.660861 )
(2.045516 0.000000 0.000000 2.059039 0.000000 0.680734 )
(0.929212 0.000000 0.000000 0.965552 0.000000 0.876572 )
(0.190333 0.000000 0.000000 0.148475 0.000000 0.346154 )
(3.017049 0.000000 0.000000 1.915847 0.000000 1.513294 )
(0.625000 0.000000 0.000000 0.038440 0.000000 0.307048 )
(0.305970 0.000000 0.000000 0.038440 0.000000 0.272133 )
(0.159658 0.000000 0.000000 0.052314 0.000000 0.326622 )
(1.030941 0.000000 0.000000 0.879503 0.000000 1.759034 )
(1.762155 0.000000 0.000000 0.902736 0.000000 1.767073 )
(2.474511 0.000000 0.000000 1.585493 0.000000 1.437109 )
(2.117936 0.000000 0.000000 1.972244 0.000000 1.410977 )
(0.112179 0.000000 0.000000 0.197677 0.000000 0.175122 )
(2.197552 0.000000 0.000000 1.914867 0.000000 1.495566 )
(3.017049 0.000000 0.000000 2.056398 0.000000 1.513294 )
(1.745997 0.000000 0.000000 2.904533 0.000000 0.082342 )
(1.703225 0.000000 0.000000 1.828204 0.000000 0.826066 )
(0.038428 0.000000 0.000000 0.319660 0.000000 0.625000 )
(1.759549 0.000000 0.000000 1.822660 0.000000 1.814531 )
(2.626163 0.000000 0.000000 1.830583 0.000000 1.889045 )
(8.669946 0.000000 0.000000 4.889000 0.000000 12.579579 )
(1.378064 0.000000 0.000000 4.408605 0.000000 2.495519 )
(0.150982 0.000000 0.000000 2.023323 0.000000 2.951834 )
(1.529985 0.000000 0.000000 3.723593 0.000000 4.726274 )
(5.074562 0.000000 0.000000 4.469854 0.000000 4.333239 )
(7.637389 0.000000 0.000000 1.528241 0.000000 9.965904 )
(1.724053 0.000000 0.000000 1.454317 0.000000 0.539561 )
(0.157680 0.000000 0.000000 0.237900 0.000000 0.625001 )
(1.845681 0.000000 0.000000 1.400875 0.000000 2.721142 )
(4.484755 0.000000 0.000000 0.889154 0.000000 1.714421 )
(6.169958 0.000000 0.000000 0.698727 0.000000 11.963250 )
(0.872544 0.000000 0.000000 0.649410 0.000000 0.797674 )
(0.153793 0.000000 0.000000 0.118950 0.000000 0.625001 )
(1.017868 0.000000 0.000000 0.639974 0.000000 3.468974 )
(4.971136 0.000000 0.000000 1.249461 0.000000 1.610485 )
(7.600644 0.000000 0.000000 1.528241 0.000000 9.965904 )
(1.713477 0.000000 0.000000 1.454317 0.000000 0.531299 )
(0.153793 0.000000 0.000000 0.237900 0.000000 0.625001 )
(1.845681 0.000000 0.000000 1.407724 0.000000 2.936411 )
(5.062389 0.000000 0.000000 1.454318 0.000000 1.446184 )
(6.291484 0.000000 0.000000 5.215724 0.000000 9.650877 )
(1.239037 0.000000 0.000000 4.243258 0.000000 0.662734 )
(0.157680 0.000000 0.000000 2.023323 0.000000 0.625001 )
(1.386490 0.000000 0.000000 3.405920 0.000000 3.195271 )
(3.585681 0.000000 0.000000 3.163865 0.000000 1.639455 )
(4.337541 0.000000 0.000000 5.272254 0.000000 0.000000 )
(1.434625 0.000000 0.000000 1.722703 0.000000 0.000000 )
(0.000000 0.000000 0.000000 0.315753 0.000000 0.000000 )
(1.358199 0.000000 0.000000 1.736844 0.000000 0.000000 )
(3.622968 0.000000 0.000000 2.099826 0.000000 0.000000 )
(2.126692 0.000000 0.000000 2.126692 0.000000 0.000000 )
(2.111227 0.000000 0.000000 2.056517 0.000000 0.000000 )
(0.000000 0.000000 0.000000 0.265200 0.000000 0.000000 )
(2.111227 0.000000 0.000000 2.027145 0.000000 0.000000 )
(1.198212 0.000000 0.000000 1.273485 0.000000 0.000000 )
(0.963535 0.000000 0.000000 0.963535 0.000000 0.000000 )
(0.963535 0.000000 0.000000 0.914536 0.000000 0.000000 )
(0.014063 0.000000 0.000000 0.132600 0.000000 0.000000 )
(0.963535 0.000000 0.000000 0.951319 0.000000 0.000000 )
(1.864635 0.000000 0.000000 1.768116 0.000000 0.000000 )
(2.126692 0.000000 0.000000 2.126692 0.000000 0.000000 )
(2.111932 0.000000 0.000000 2.056517 0.000000 0.000000 )
(0.014062 0.000000 0.000000 0.265200 0.000000 0.000000 )
(2.111932 0.000000 0.000000 2.038542 0.000000 0.000000 )
(2.126692 0.000000 0.000000 2.056517 0.000000 0.000000 )
(1.481428 0.000000 0.000000 5.227805 0.000000 0.000000 )
(1.542838 0.000000 0.000000 1.716379 0.000000 0.000000 )
(0.000000 0.000000 0.000000 0.315753 0.000000 0.000000 )
(1.550039 0.000000 0.000000 1.670458 0.000000 0.000000 )
(0.947220 0.000000 0.000000 0.947077 0.000000 0.000000 )
(3.221746 0.000000 0.000000 6.314095 0.000000 0.000000 )
(0.886092 0.000000 0.000000 1.844574 0.000000 0.000000 )
(0.000000 0.000000 0.000000 0.218732 0.000000 0.000000 )
(0.695407 0.000000 0.000000 1.648590 0.000000 0.000000 )
(3.097898 0.000000 0.000000 2.336114 0.000000 0.000000 )
(2.126692 0.000000 0.000000 2.126692 0.000000 0.000000 )
(2.089997 0.000000 0.000000 2.076283 0.000000 0.000000 )
(0.000000 0.000000 0.000000 0.292500 0.000000 0.000000 )
(2.089997 0.000000 0.000000 2.063484 0.000000 0.000000 )
(1.198212 0.000000 0.000000 1.285208 0.000000 0.000000 )
(0.963535 0.000000 0.000000 0.963535 0.000000 0.000000 )
(0.963535 0.000000 0.000000 0.913954 0.000000 0.000000 )
(0.000000 0.000000 0.000000 0.146250 0.000000 0.000000 )
(0.963535 0.000000 0.000000 0.963535 0.000000 0.000000 )
(1.864635 0.000000 0.000000 1.776109 0.000000 0.000000 )
(2.126692 0.000000 0.000000 2.126692 0.000000 0.000000 )
(2.126692 0.000000 0.000000 2.076283 0.000000 0.000000 )
(0.000000 0.000000 0.000000 0.292500 0.000000 0.000000 )
(2.126692 0.000000 0.000000 2.076283 0.000000 0.000000 )
(2.126692 0.000000 0.000000 2.076283 0.000000 0.000000 )
(1.629440 0.000000 0.000000 6.314099 0.000000 0.000000 )
(1.629442 0.000000 0.000000 1.844575 0.000000 0.000000 )
(0.000000 0.000000 0.000000 0.218733 0.000000 0.000000 )
(1.629439 0.000000 0.000000 1.556297 0.000000 0.000000 )
(0.963530 0.000000 0.000000 0.960244 0.000000 0.000000 )
(2.869795 0.000000 0.000000 6.308904 0.000000 0.000000 )
(0.716165 0.000000 0.000000 1.842933 0.000000 0.000000 )
(0.000000 0.000000 0.000000 0.217413 0.000000 0.000000 )
(0.467810 0.000000 0.000000 1.646969 0.000000 0.000000 )
(3.148185 0.000000 0.000000 2.472213 0.000000 0.000000 )
(2.126692 0.000000 0.000000 2.126692 0.000000 0.000000 )
(2.072595 0.000000 0.000000 2.076454 0.000000 0.000000 )
(0.000000 0.000000 0.000000 0.291420 0.000000 0.000000 )
(2.072595 0.000000 0.000000 2.063654 0.000000 0.000000 )
(1.198212 0.000000 0.000000 1.294552 0.000000 0.000000 )
(0.963535 0.000000 0.000000 0.963535 0.000000 0.000000 )
(0.963535 0.000000 0.000000 0.914455 0.000000 0.000000 )
(0.003516 0.000000 0.000000 0.145710 0.000000 0.000000 )
(0.963535 0.000000 0.000000 0.963535 0.000000 0.000000 )
(1.864635 0.000000 0.000000 1.789378 0.000000 0.000000 )
(2.126692 0.000000 0.000000 2.126692 0.000000 0.000000 )
(2.126692 0.000000 0.000000 2.076454 0.000000 0.000000 )
(0.003515 0.000000 0.000000 0.291420 0.000000 0.000000 )
(2.126692 0.000000 0.000000 2.076454 0.000000 0.000000 )
(2.126692 0.000000 0.000000 2.091089 0.000000 0.000000 )
(1.629435 0.000000 0.000000 6.308909 0.000000 0.000000 )
(1.626324 0.000000 0.000000 1.842935 0.000000 0.000000 )
(0.000000 0.000000 0.000000 0.217413 0.000000 0.000000 )
(1.626320 0.000000 0.000000 1.555247 0.000000 0.000000 )
(0.963528 0.000000 0.000000 0.959531 0.000000 0.000000 )
(3.409359 0.000000 0.000000 7.840272 0.000000 7.457517 )
(0.473244 0.000000 0.000000 1.828203 0.000000 1.763799 )
(0.059079 0.000000 0.000000 0.553855 0.000000 1.967664 )
(0.290019 0.000000 0.000000 1.822659 0.000000 2.242588 )
(3.507464 0.000000 0.000000 2.427132 0.000000 2.184609 )
(3.017049 0.000000 0.000000 2.063541 0.000000 4.706516 )
(2.166585 0.000000 0.000000 1.948225 0.000000 0.680734 )
(0.038440 0.000000 0.000000 0.194302 0.000000 0.625000 )
(2.197552 0.000000 0.000000 1.907082 0.000000 1.366771 )
(1.440349 0.000000 0.000000 1.214417 0.000000 0.815349 )
(1.762155 0.000000 0.000000 0.919848 0.000000 6.310677 )
(1.009492 0.000000 0.000000 0.886719 0.000000 0.876572 )
(0.115547 0.000000 0.000000 0.097151 0.000000 0.625000 )
(1.033137 0.000000 0.000000 0.902293 0.000000 1.767073 )
(2.153022 0.000000 0.000000 1.718142 0.000000 0.761181 )
(3.017049 0.000000 0.000000 2.063541 0.000000 4.706516 )
(2.191072 0.000000 0.000000 1.948225 0.000000 0.680734 )
(0.114997 0.000000 0.000000 0.194302 0.000000 0.625000 )
(2.197552 0.000000 0.000000 1.914867 0.000000 1.474081 )
(2.432007 0.000000 0.000000 1.972026 0.000000 0.680734 )
(2.626147 0.000000 0.000000 7.370784 0.000000 7.064584 )
(1.704384 0.000000 0.000000 1.828205 0.000000 0.877382 )
(0.038428 0.000000 0.000000 0.319660 0.000000 0.625000 )
(1.759547 0.000000 0.000000 1.822660 0.000000 1.708762 )
(1.213422 0.000000 0.000000 0.950513 0.000000 0.904238 )
(2.429106 0.000000 0.000000 2.433472 0.000000 2.263811 )
(0.070050 0.000000 0.000000 2.253867 0.000000 1.943729 )
(0.101959 0.000000 0.000000 1.844692 0.000000 1.590332 )
(0.114672 0.000000 0.000000 1.844698 0.000000 1.590332 )