/*--------------------------------*- C++ -*----------------------------------*\
| =========                 |                                                 |
| \\      /  F ield         | OpenFOAM: The Open Source CFD Toolbox           |
|  \\    /   O peration     | Version:  dev                                   |
|   \\  /    A nd           | Web:      www.OpenFOAM.com                      |
|    \\/     M anipulation  |                                                 |
\*---------------------------------------------------------------------------*/
FoamFile
{
    version     2.0;
    format      ascii;
    class       volSymmTensorField;
    location    "0";
    object      CT;
}
// * * * * * * * * * * * * * * * * * * * * * * * * * * * * * * * * * * * * * //

dimensions	[0 -1 0 0 0 0 0];

internalField   nonuniform List<symmTensor>
8025
(
(4.501854 0.000000 0.000000 3.437531 0.000000 1.537743 )
(0.000572 0.000000 0.000000 6915394125.169550 0.000000 56298.328251 )
(0.000461 0.000000 0.000000 14082323.951933 0.000000 238.796878 )
(0.103252 0.000000 0.000000 0.344817 0.000000 0.500184 )
(0.210715 0.000000 0.000000 0.279468 0.000000 0.395429 )
(8562648503.202547 0.000000 0.000000 0.000000 0.000000 9406155669.479883 )
(0.001095 0.000000 0.000000 0.000000 0.000000 0.015342 )
(0.000220 0.000000 0.000000 1911223.571495 0.000000 0.017895 )
(4.698140 0.000000 0.000000 0.051022 0.000000 0.264461 )
(0.170985 0.000000 0.000000 0.035737 0.000000 0.120814 )
(10109786.249101 0.000000 0.000000 0.000000 0.000000 18210449.459298 )
(1527889.062275 0.000000 0.000000 0.000000 0.000000 0.019425 )
(0.000746 0.000000 0.000000 0.000242 0.000000 0.017238 )
(0.009273 0.000000 0.000000 0.008151 0.000000 0.135984 )
(0.101166 0.000000 0.000000 0.007884 0.000000 0.028279 )
(0.321998 0.000000 0.000000 3.099768 0.000000 0.485715 )
(0.047686 0.000000 0.000000 32.030122 0.000000 0.026026 )
(0.007884 0.000000 0.000000 16074847.011032 0.000000 0.031250 )
(0.046731 0.000000 0.000000 0.057974 0.000000 0.131235 )
(0.123177 0.000000 0.000000 0.043879 0.000000 0.200258 )
(0.279468 0.000000 0.000000 0.210715 0.000000 0.482544 )
(0.035737 0.000000 0.000000 0.170985 0.000000 0.033137 )
(0.007884 0.000000 0.000000 0.101166 0.000000 0.031250 )
(0.043879 0.000000 0.000000 0.123174 0.000000 0.159764 )
(0.097951 0.000000 0.000000 0.097951 0.000000 0.031250 )
(624032048.680229 0.000000 0.000000 1167071042.118290 0.000000 0.000000 )
(0.000000 0.000000 0.000000 0.013474 0.000000 0.000000 )
(0.000000 0.000000 0.000000 3576771.353073 0.000000 0.000000 )
(7.285775 0.000000 0.000000 0.065977 0.000000 0.000000 )
(0.188400 0.000000 0.000000 0.036861 0.000000 0.000000 )
(0.014569 0.000000 0.000000 0.000000 0.000000 0.000000 )
(0.000000 0.000000 0.000000 0.000000 0.000000 0.000000 )
(0.000000 0.000000 0.000000 2490875.858326 0.000000 0.000000 )
(1.818732 0.000000 0.000000 0.056960 0.000000 0.000000 )
(0.042137 0.000000 0.000000 0.038083 0.000000 0.000000 )
(3152163.274759 0.000000 0.000000 0.000000 0.000000 0.000000 )
(1990101.420516 0.000000 0.000000 0.000000 0.000000 0.000000 )
(0.000000 0.000000 0.000000 0.000000 0.000000 0.000000 )
(0.010121 0.000000 0.000000 0.000343 0.000000 0.000000 )
(0.011853 0.000000 0.000000 0.000519 0.000000 0.000000 )
(0.052123 0.000000 0.000000 4.633885 0.000000 0.000000 )
(0.053167 0.000000 0.000000 1.818732 0.000000 0.000000 )
(0.000352 0.000000 0.000000 0.016420 0.000000 0.000000 )
(0.052123 0.000000 0.000000 0.064755 0.000000 0.000000 )
(0.039259 0.000000 0.000000 0.038083 0.000000 0.000000 )
(0.037036 0.000000 0.000000 0.200356 0.000000 0.000000 )
(0.038571 0.000000 0.000000 0.042904 0.000000 0.000000 )
(0.000000 0.000000 0.000000 0.011841 0.000000 0.000000 )
(0.038751 0.000000 0.000000 0.039631 0.000000 0.000000 )
(0.014261 0.000000 0.000000 0.014679 0.000000 0.000000 )
(1.837181 0.000000 0.000000 1152438380.491448 0.000000 0.000000 )
(0.000000 0.000000 0.000000 0.003098 0.000000 0.000000 )
(0.000000 0.000000 0.000000 2987092.263205 0.000000 0.000000 )
(7936092493.645885 0.000000 0.000000 0.080382 0.000000 0.000000 )
(0.188053 0.000000 0.000000 0.040553 0.000000 0.000000 )
(0.001359 0.000000 0.000000 0.000000 0.000000 0.000000 )
(0.000000 0.000000 0.000000 0.000000 0.000000 0.000000 )
(0.000000 0.000000 0.000000 2665771.714509 0.000000 0.000000 )
(1.818732 0.000000 0.000000 0.056960 0.000000 0.000000 )
(0.042137 0.000000 0.000000 0.038083 0.000000 0.000000 )
(2445326.268239 0.000000 0.000000 0.000000 0.000000 0.000000 )
(2141326.555222 0.000000 0.000000 0.000000 0.000000 0.000000 )
(0.000000 0.000000 0.000000 0.000000 0.000000 0.000000 )
(0.010969 0.000000 0.000000 0.000000 0.000000 0.000000 )
(0.008227 0.000000 0.000000 0.000000 0.000000 0.000000 )
(0.052123 0.000000 0.000000 4.633885 0.000000 0.000000 )
(0.053167 0.000000 0.000000 1.818732 0.000000 0.000000 )
(0.000000 0.000000 0.000000 0.011408 0.000000 0.000000 )
(0.052123 0.000000 0.000000 0.064755 0.000000 0.000000 )
(0.035590 0.000000 0.000000 0.038083 0.000000 0.000000 )
(0.040736 0.000000 0.000000 0.236809 0.000000 0.000000 )
(0.040736 0.000000 0.000000 0.045996 0.000000 0.000000 )
(0.000000 0.000000 0.000000 0.008202 0.000000 0.000000 )
(0.040736 0.000000 0.000000 0.036620 0.000000 0.000000 )
(0.010914 0.000000 0.000000 0.011767 0.000000 0.000000 )
(0.000000 0.000000 0.000000 1149778272.577839 0.000000 0.000000 )
(0.000000 0.000000 0.000000 0.003081 0.000000 0.000000 )
(0.000000 0.000000 0.000000 3022408.821982 0.000000 0.000000 )
(7274550879.712132 0.000000 0.000000 0.080265 0.000000 0.000000 )
(0.172104 0.000000 0.000000 0.040514 0.000000 0.000000 )
(0.002077 0.000000 0.000000 0.000000 0.000000 0.000000 )
(0.000000 0.000000 0.000000 0.000000 0.000000 0.000000 )
(0.000000 0.000000 0.000000 2705188.116480 0.000000 0.000000 )
(1.818732 0.000000 0.000000 0.056960 0.000000 0.000000 )
(0.042137 0.000000 0.000000 0.038083 0.000000 0.000000 )
(2486340.558120 0.000000 0.000000 0.000000 0.000000 0.000000 )
(2179599.047306 0.000000 0.000000 0.000000 0.000000 0.000000 )
(0.000000 0.000000 0.000000 0.000000 0.000000 0.000000 )
(0.010983 0.000000 0.000000 0.000086 0.000000 0.000000 )
(0.008196 0.000000 0.000000 0.000130 0.000000 0.000000 )
(0.052123 0.000000 0.000000 4.633885 0.000000 0.000000 )
(0.053167 0.000000 0.000000 1.818732 0.000000 0.000000 )
(0.000132 0.000000 0.000000 0.011412 0.000000 0.000000 )
(0.052123 0.000000 0.000000 0.064755 0.000000 0.000000 )
(0.035592 0.000000 0.000000 0.038083 0.000000 0.000000 )
(0.040736 0.000000 0.000000 0.236589 0.000000 0.000000 )
(0.040658 0.000000 0.000000 0.045928 0.000000 0.000000 )
(0.000000 0.000000 0.000000 0.008153 0.000000 0.000000 )
(0.040636 0.000000 0.000000 0.036568 0.000000 0.000000 )
(0.010446 0.000000 0.000000 0.011820 0.000000 0.000000 )
(0.873407 0.000000 0.000000 41694511.823280 0.000000 1372.578727 )
(0.000000 0.000000 0.000000 0.000000 0.000000 0.821879 )
(0.000000 0.000000 0.000000 856760.532956 0.000000 0.003168 )
(5140740.166771 0.000000 0.000000 0.087261 0.000000 0.253165 )
(0.158450 0.000000 0.000000 0.045982 0.000000 0.188031 )
(9419575.601641 0.000000 0.000000 1574084.972888 0.000000 0.001465 )
(0.000000 0.000000 0.000000 0.000000 0.000000 0.000733 )
(1396973.718073 0.000000 0.000000 50031.718695 0.000000 0.003168 )
(1.709794 0.000000 0.000000 0.059885 0.000000 0.033999 )
(0.039934 0.000000 0.000000 0.039536 0.000000 0.037217 )
(684504.617496 0.000000 0.000000 878530.433840 0.000000 0.007590 )
(159227.390813 0.000000 0.000000 750105.476384 0.000000 0.004816 )
(4.460419 0.000000 0.000000 0.000000 0.000000 0.005036 )
(0.012881 0.000000 0.000000 0.001987 0.000000 0.008620 )
(0.008207 0.000000 0.000000 0.001922 0.000000 0.011315 )
(0.097049 0.000000 0.000000 3.484275 0.000000 0.230220 )
(0.055852 0.000000 0.000000 1.416538 0.000000 0.034249 )
(0.004312 0.000000 0.000000 0.007678 0.000000 0.031250 )
(0.053378 0.000000 0.000000 0.065603 0.000000 0.064995 )
(0.038611 0.000000 0.000000 0.041252 0.000000 0.079457 )
(0.089575 0.000000 0.000000 0.281303 0.000000 0.400237 )
(0.043512 0.000000 0.000000 0.044968 0.000000 0.043869 )
(0.001921 0.000000 0.000000 0.011987 0.000000 0.031250 )
(0.046215 0.000000 0.000000 0.043093 0.000000 0.094452 )
(0.009496 0.000000 0.000000 0.014606 0.000000 0.004841 )
(0.197356 0.000000 0.000000 0.388879 0.000000 0.339349 )
(0.038206 0.000000 0.000000 0.329375 0.000000 0.379465 )
(0.017468 0.000000 0.000000 0.283801 0.000000 0.342104 )
(0.038206 0.000000 0.000000 0.327666 0.000000 0.340265 )
(0.210715 0.000000 0.000000 0.279468 0.000000 0.387037 )
(0.177733 0.000000 0.000000 0.039789 0.000000 0.121813 )
(0.036333 0.000000 0.000000 0.048301 0.000000 0.072309 )
(0.016225 0.000000 0.000000 0.026477 0.000000 0.090467 )
(0.036333 0.000000 0.000000 0.047976 0.000000 0.072309 )
(0.170985 0.000000 0.000000 0.035737 0.000000 0.120814 )
(0.101166 0.000000 0.000000 0.007560 0.000000 0.050583 )
(0.008921 0.000000 0.000000 0.007884 0.000000 0.025339 )
(0.004461 0.000000 0.000000 0.007690 0.000000 0.024818 )
(0.008921 0.000000 0.000000 0.007690 0.000000 0.026438 )
(0.101166 0.000000 0.000000 0.007884 0.000000 0.025917 )
(0.148885 0.000000 0.000000 0.048486 0.000000 0.190302 )
(0.035022 0.000000 0.000000 0.056046 0.000000 0.154723 )
(0.015999 0.000000 0.000000 0.034391 0.000000 0.173449 )
(0.035193 0.000000 0.000000 0.056046 0.000000 0.154723 )
(0.135525 0.000000 0.000000 0.043879 0.000000 0.200258 )
(0.172898 0.000000 0.000000 0.192309 0.000000 0.090936 )
(0.022214 0.000000 0.000000 0.189047 0.000000 0.084484 )
(0.031215 0.000000 0.000000 0.197269 0.000000 0.065644 )
(0.036333 0.000000 0.000000 0.196727 0.000000 0.063970 )
(0.134465 0.000000 0.000000 0.154543 0.000000 0.127807 )
(0.184869 0.000000 0.000000 0.177772 0.000000 0.000000 )
(0.048256 0.000000 0.000000 0.053874 0.000000 0.000000 )
(0.015687 0.000000 0.000000 0.024078 0.000000 0.000000 )
(0.044059 0.000000 0.000000 0.054132 0.000000 0.000000 )
(0.188400 0.000000 0.000000 0.036861 0.000000 0.000000 )
(0.042137 0.000000 0.000000 0.038083 0.000000 0.000000 )
(0.050947 0.000000 0.000000 0.053167 0.000000 0.000000 )
(0.022663 0.000000 0.000000 0.024088 0.000000 0.000000 )
(0.050947 0.000000 0.000000 0.052798 0.000000 0.000000 )
(0.042137 0.000000 0.000000 0.038083 0.000000 0.000000 )
(0.011853 0.000000 0.000000 0.000527 0.000000 0.000000 )
(0.009945 0.000000 0.000000 0.000527 0.000000 0.000000 )
(0.004972 0.000000 0.000000 0.000527 0.000000 0.000000 )
(0.009945 0.000000 0.000000 0.000527 0.000000 0.000000 )
(0.011853 0.000000 0.000000 0.000527 0.000000 0.000000 )
(0.042137 0.000000 0.000000 0.038083 0.000000 0.000000 )
(0.050679 0.000000 0.000000 0.053167 0.000000 0.000000 )
(0.023783 0.000000 0.000000 0.024088 0.000000 0.000000 )
(0.050964 0.000000 0.000000 0.052798 0.000000 0.000000 )
(0.041344 0.000000 0.000000 0.038083 0.000000 0.000000 )
(0.052778 0.000000 0.000000 0.120107 0.000000 0.000000 )
(0.031797 0.000000 0.000000 0.030320 0.000000 0.000000 )
(0.044053 0.000000 0.000000 0.047210 0.000000 0.000000 )
(0.051252 0.000000 0.000000 0.053967 0.000000 0.000000 )
(0.023680 0.000000 0.000000 0.023674 0.000000 0.000000 )
(0.143381 0.000000 0.000000 0.163069 0.000000 0.000000 )
(0.022217 0.000000 0.000000 0.061677 0.000000 0.000000 )
(0.000000 0.000000 0.000000 0.023893 0.000000 0.000000 )
(0.011341 0.000000 0.000000 0.056453 0.000000 0.000000 )
(0.188053 0.000000 0.000000 0.040553 0.000000 0.000000 )
(0.042137 0.000000 0.000000 0.038083 0.000000 0.000000 )
(0.050838 0.000000 0.000000 0.053167 0.000000 0.000000 )
(0.022395 0.000000 0.000000 0.024088 0.000000 0.000000 )
(0.050838 0.000000 0.000000 0.053167 0.000000 0.000000 )
(0.042137 0.000000 0.000000 0.038083 0.000000 0.000000 )
(0.008227 0.000000 0.000000 0.000000 0.000000 0.000000 )
(0.010969 0.000000 0.000000 0.000000 0.000000 0.000000 )
(0.005484 0.000000 0.000000 0.000000 0.000000 0.000000 )
(0.010969 0.000000 0.000000 0.000000 0.000000 0.000000 )
(0.008227 0.000000 0.000000 0.000000 0.000000 0.000000 )
(0.039799 0.000000 0.000000 0.038083 0.000000 0.000000 )
(0.051587 0.000000 0.000000 0.053167 0.000000 0.000000 )
(0.024088 0.000000 0.000000 0.024088 0.000000 0.000000 )
(0.051907 0.000000 0.000000 0.053167 0.000000 0.000000 )
(0.037636 0.000000 0.000000 0.038083 0.000000 0.000000 )
(0.060344 0.000000 0.000000 0.113061 0.000000 0.000000 )
(0.032315 0.000000 0.000000 0.031014 0.000000 0.000000 )
(0.045426 0.000000 0.000000 0.050573 0.000000 0.000000 )
(0.053989 0.000000 0.000000 0.057207 0.000000 0.000000 )
(0.024088 0.000000 0.000000 0.023934 0.000000 0.000000 )
(0.116589 0.000000 0.000000 0.164535 0.000000 0.000000 )
(0.013615 0.000000 0.000000 0.061604 0.000000 0.000000 )
(0.000000 0.000000 0.000000 0.023845 0.000000 0.000000 )
(0.000000 0.000000 0.000000 0.056681 0.000000 0.000000 )
(0.172104 0.000000 0.000000 0.040514 0.000000 0.000000 )
(0.042137 0.000000 0.000000 0.038083 0.000000 0.000000 )
(0.050156 0.000000 0.000000 0.053167 0.000000 0.000000 )
(0.022115 0.000000 0.000000 0.024088 0.000000 0.000000 )
(0.050156 0.000000 0.000000 0.053167 0.000000 0.000000 )
(0.042137 0.000000 0.000000 0.038083 0.000000 0.000000 )
(0.010371 0.000000 0.000000 0.000132 0.000000 0.000000 )
(0.010928 0.000000 0.000000 0.000132 0.000000 0.000000 )
(0.005464 0.000000 0.000000 0.000132 0.000000 0.000000 )
(0.010928 0.000000 0.000000 0.000132 0.000000 0.000000 )
(0.008196 0.000000 0.000000 0.000132 0.000000 0.000000 )
(0.039802 0.000000 0.000000 0.038083 0.000000 0.000000 )
(0.051591 0.000000 0.000000 0.053167 0.000000 0.000000 )
(0.024088 0.000000 0.000000 0.024088 0.000000 0.000000 )
(0.051911 0.000000 0.000000 0.053167 0.000000 0.000000 )
(0.037648 0.000000 0.000000 0.038083 0.000000 0.000000 )
(0.059821 0.000000 0.000000 0.115363 0.000000 0.000000 )
(0.032097 0.000000 0.000000 0.030961 0.000000 0.000000 )
(0.045127 0.000000 0.000000 0.051055 0.000000 0.000000 )
(0.053621 0.000000 0.000000 0.058326 0.000000 0.000000 )
(0.024088 0.000000 0.000000 0.023902 0.000000 0.000000 )
(0.125212 0.000000 0.000000 0.215043 0.000000 0.143309 )
(0.000000 0.000000 0.000000 0.067928 0.000000 0.180863 )
(0.003552 0.000000 0.000000 0.028607 0.000000 0.164147 )
(0.000000 0.000000 0.000000 0.067654 0.000000 0.159672 )
(0.158450 0.000000 0.000000 0.045982 0.000000 0.183398 )
(0.085079 0.000000 0.000000 0.039815 0.000000 0.033043 )
(0.050569 0.000000 0.000000 0.052107 0.000000 0.034037 )
(0.022970 0.000000 0.000000 0.026155 0.000000 0.043829 )
(0.050569 0.000000 0.000000 0.051615 0.000000 0.034037 )
(0.039934 0.000000 0.000000 0.039536 0.000000 0.037217 )
(0.031250 0.000000 0.000000 0.001922 0.000000 0.011672 )
(0.011400 0.000000 0.000000 0.001922 0.000000 0.011750 )
(0.007756 0.000000 0.000000 0.001922 0.000000 0.012406 )
(0.012771 0.000000 0.000000 0.001922 0.000000 0.012484 )
(0.008207 0.000000 0.000000 0.001922 0.000000 0.011672 )
(0.083301 0.000000 0.000000 0.041677 0.000000 0.069217 )
(0.050995 0.000000 0.000000 0.054051 0.000000 0.075665 )
(0.022850 0.000000 0.000000 0.027887 0.000000 0.088354 )
(0.050995 0.000000 0.000000 0.053519 0.000000 0.075665 )
(0.038976 0.000000 0.000000 0.041252 0.000000 0.079457 )
(0.112362 0.000000 0.000000 0.163366 0.000000 0.038180 )
(0.032544 0.000000 0.000000 0.042331 0.000000 0.043895 )
(0.047003 0.000000 0.000000 0.065530 0.000000 0.041156 )
(0.054562 0.000000 0.000000 0.077791 0.000000 0.039841 )
(0.023628 0.000000 0.000000 0.034073 0.000000 0.045212 )
(0.197356 0.000000 0.000000 0.388879 0.000000 0.339349 )
(0.038206 0.000000 0.000000 0.329375 0.000000 0.379465 )
(0.017468 0.000000 0.000000 0.283801 0.000000 0.317678 )
(0.037357 0.000000 0.000000 0.329375 0.000000 0.322351 )
(0.354877 0.000000 0.000000 0.256853 0.000000 0.313461 )
(0.177733 0.000000 0.000000 0.039789 0.000000 0.121813 )
(0.036333 0.000000 0.000000 0.048301 0.000000 0.072309 )
(0.016225 0.000000 0.000000 0.026376 0.000000 0.090467 )
(0.007311 0.000000 0.000000 0.007103 0.000000 0.025968 )
(0.329376 0.000000 0.000000 0.035208 0.000000 0.154723 )
(0.101166 0.000000 0.000000 0.007560 0.000000 0.050583 )
(0.009218 0.000000 0.000000 0.007884 0.000000 0.022249 )
(0.002439 0.000000 0.000000 0.007884 0.000000 0.024503 )
(0.034280 0.000000 0.000000 0.016743 0.000000 0.172095 )
(0.283801 0.000000 0.000000 0.015999 0.000000 0.173449 )
(0.135655 0.000000 0.000000 0.048486 0.000000 0.197556 )
(0.042750 0.000000 0.000000 0.049389 0.000000 0.143566 )
(0.004515 0.000000 0.000000 0.009428 0.000000 0.011676 )
(0.056046 0.000000 0.000000 0.035193 0.000000 0.148976 )
(0.327675 0.000000 0.000000 0.035208 0.000000 0.154723 )
(0.132281 0.000000 0.000000 0.165925 0.000000 0.035210 )
(0.035737 0.000000 0.000000 0.163049 0.000000 0.033137 )
(0.007884 0.000000 0.000000 0.101166 0.000000 0.031250 )
(0.043880 0.000000 0.000000 0.148562 0.000000 0.159764 )
(0.272179 0.000000 0.000000 0.145720 0.000000 0.156254 )
(0.184869 0.000000 0.000000 0.177772 0.000000 0.000000 )
(0.048256 0.000000 0.000000 0.053874 0.000000 0.000000 )
(0.015687 0.000000 0.000000 0.024078 0.000000 0.000000 )
(0.042513 0.000000 0.000000 0.054132 0.000000 0.000000 )
(0.287781 0.000000 0.000000 0.050158 0.000000 0.000000 )
(0.042137 0.000000 0.000000 0.038083 0.000000 0.000000 )
(0.050947 0.000000 0.000000 0.053167 0.000000 0.000000 )
(0.022663 0.000000 0.000000 0.023962 0.000000 0.000000 )
(0.007024 0.000000 0.000000 0.007695 0.000000 0.000000 )
(0.053167 0.000000 0.000000 0.051038 0.000000 0.000000 )
(0.011853 0.000000 0.000000 0.000527 0.000000 0.000000 )
(0.010094 0.000000 0.000000 0.000527 0.000000 0.000000 )
(0.002591 0.000000 0.000000 0.002855 0.000000 0.000000 )
(0.023962 0.000000 0.000000 0.022772 0.000000 0.000000 )
(0.024088 0.000000 0.000000 0.023816 0.000000 0.000000 )
(0.041344 0.000000 0.000000 0.038083 0.000000 0.000000 )
(0.049996 0.000000 0.000000 0.050437 0.000000 0.000000 )
(0.000280 0.000000 0.000000 0.010198 0.000000 0.000000 )
(0.052798 0.000000 0.000000 0.050964 0.000000 0.000000 )
(0.053167 0.000000 0.000000 0.053167 0.000000 0.000000 )
(0.023864 0.000000 0.000000 0.095370 0.000000 0.000000 )
(0.038571 0.000000 0.000000 0.042904 0.000000 0.000000 )
(0.000000 0.000000 0.000000 0.011841 0.000000 0.000000 )
(0.038751 0.000000 0.000000 0.043190 0.000000 0.000000 )
(0.036831 0.000000 0.000000 0.040162 0.000000 0.000000 )
(0.143381 0.000000 0.000000 0.163069 0.000000 0.000000 )
(0.022217 0.000000 0.000000 0.061677 0.000000 0.000000 )
(0.000000 0.000000 0.000000 0.023893 0.000000 0.000000 )
(0.013975 0.000000 0.000000 0.058099 0.000000 0.000000 )
(0.295976 0.000000 0.000000 0.052989 0.000000 0.000000 )
(0.042137 0.000000 0.000000 0.038083 0.000000 0.000000 )
(0.050838 0.000000 0.000000 0.053167 0.000000 0.000000 )
(0.022395 0.000000 0.000000 0.024088 0.000000 0.000000 )
(0.006465 0.000000 0.000000 0.008227 0.000000 0.000000 )
(0.053167 0.000000 0.000000 0.051907 0.000000 0.000000 )
(0.008227 0.000000 0.000000 0.000000 0.000000 0.000000 )
(0.010969 0.000000 0.000000 0.000000 0.000000 0.000000 )
(0.002742 0.000000 0.000000 0.002742 0.000000 0.000000 )
(0.024088 0.000000 0.000000 0.022849 0.000000 0.000000 )
(0.024088 0.000000 0.000000 0.024088 0.000000 0.000000 )
(0.037636 0.000000 0.000000 0.038083 0.000000 0.000000 )
(0.050505 0.000000 0.000000 0.050505 0.000000 0.000000 )
(0.000000 0.000000 0.000000 0.010969 0.000000 0.000000 )
(0.053167 0.000000 0.000000 0.051907 0.000000 0.000000 )
(0.053167 0.000000 0.000000 0.053167 0.000000 0.000000 )
(0.024088 0.000000 0.000000 0.081279 0.000000 0.000000 )
(0.040736 0.000000 0.000000 0.043425 0.000000 0.000000 )
(0.000000 0.000000 0.000000 0.008202 0.000000 0.000000 )
(0.040736 0.000000 0.000000 0.041067 0.000000 0.000000 )
(0.040736 0.000000 0.000000 0.046256 0.000000 0.000000 )
(0.116589 0.000000 0.000000 0.164535 0.000000 0.000000 )
(0.013615 0.000000 0.000000 0.061604 0.000000 0.000000 )
(0.000000 0.000000 0.000000 0.023845 0.000000 0.000000 )
(0.003554 0.000000 0.000000 0.058303 0.000000 0.000000 )
(0.311950 0.000000 0.000000 0.055195 0.000000 0.000000 )
(0.042137 0.000000 0.000000 0.038083 0.000000 0.000000 )
(0.050156 0.000000 0.000000 0.053167 0.000000 0.000000 )
(0.022115 0.000000 0.000000 0.024088 0.000000 0.000000 )
(0.005457 0.000000 0.000000 0.008255 0.000000 0.000000 )
(0.053167 0.000000 0.000000 0.051949 0.000000 0.000000 )
(0.010371 0.000000 0.000000 0.000132 0.000000 0.000000 )
(0.010965 0.000000 0.000000 0.000132 0.000000 0.000000 )
(0.002758 0.000000 0.000000 0.002824 0.000000 0.000000 )
(0.024088 0.000000 0.000000 0.022912 0.000000 0.000000 )
(0.024088 0.000000 0.000000 0.024088 0.000000 0.000000 )
(0.037648 0.000000 0.000000 0.038083 0.000000 0.000000 )
(0.050658 0.000000 0.000000 0.050658 0.000000 0.000000 )
(0.000070 0.000000 0.000000 0.010992 0.000000 0.000000 )
(0.053167 0.000000 0.000000 0.051911 0.000000 0.000000 )
(0.053167 0.000000 0.000000 0.053167 0.000000 0.000000 )
(0.024088 0.000000 0.000000 0.082227 0.000000 0.000000 )
(0.040644 0.000000 0.000000 0.043352 0.000000 0.000000 )
(0.000000 0.000000 0.000000 0.008153 0.000000 0.000000 )
(0.040658 0.000000 0.000000 0.040997 0.000000 0.000000 )
(0.040736 0.000000 0.000000 0.046212 0.000000 0.000000 )
(0.125212 0.000000 0.000000 0.215043 0.000000 0.143309 )
(0.000000 0.000000 0.000000 0.067928 0.000000 0.180863 )
(0.003552 0.000000 0.000000 0.028607 0.000000 0.151402 )
(0.000000 0.000000 0.000000 0.067654 0.000000 0.150093 )
(0.315098 0.000000 0.000000 0.056171 0.000000 0.149798 )
(0.085079 0.000000 0.000000 0.039815 0.000000 0.033043 )
(0.050569 0.000000 0.000000 0.052107 0.000000 0.034037 )
(0.022970 0.000000 0.000000 0.024975 0.000000 0.043829 )
(0.007137 0.000000 0.000000 0.005568 0.000000 0.012981 )
(0.097926 0.000000 0.000000 0.047393 0.000000 0.075665 )
(0.031250 0.000000 0.000000 0.001922 0.000000 0.011514 )
(0.011474 0.000000 0.000000 0.001922 0.000000 0.010205 )
(0.005987 0.000000 0.000000 0.001962 0.000000 0.012248 )
(0.027827 0.000000 0.000000 0.021850 0.000000 0.087952 )
(0.064338 0.000000 0.000000 0.022319 0.000000 0.088354 )
(0.083301 0.000000 0.000000 0.041677 0.000000 0.071855 )
(0.053446 0.000000 0.000000 0.050363 0.000000 0.070549 )
(0.004207 0.000000 0.000000 0.007413 0.000000 0.006567 )
(0.056952 0.000000 0.000000 0.047369 0.000000 0.074778 )
(0.097926 0.000000 0.000000 0.050821 0.000000 0.075665 )
(0.063125 0.000000 0.000000 0.105209 0.000000 0.003088 )
(0.043481 0.000000 0.000000 0.044968 0.000000 0.041303 )
(0.001921 0.000000 0.000000 0.011987 0.000000 0.031250 )
(0.046270 0.000000 0.000000 0.044710 0.000000 0.090727 )
(0.089575 0.000000 0.000000 0.045068 0.000000 0.094452 )
(0.388879 0.000000 0.000000 0.197356 0.000000 0.628979 )
(0.039789 0.000000 0.000000 0.177733 0.000000 0.124776 )
(0.007549 0.000000 0.000000 0.101166 0.000000 0.147592 )
(0.048486 0.000000 0.000000 0.148881 0.000000 0.236314 )
(0.192165 0.000000 0.000000 0.172898 0.000000 0.216662 )
(0.329376 0.000000 0.000000 0.038206 0.000000 0.498295 )
(0.048301 0.000000 0.000000 0.036358 0.000000 0.020234 )
(0.007884 0.000000 0.000000 0.008921 0.000000 0.031250 )
(0.056046 0.000000 0.000000 0.035022 0.000000 0.136057 )
(0.189047 0.000000 0.000000 0.022229 0.000000 0.085721 )
(0.283801 0.000000 0.000000 0.017468 0.000000 0.598162 )
(0.026477 0.000000 0.000000 0.016235 0.000000 0.039884 )
(0.007690 0.000000 0.000000 0.004461 0.000000 0.031250 )
(0.034391 0.000000 0.000000 0.015999 0.000000 0.173449 )
(0.197274 0.000000 0.000000 0.031237 0.000000 0.080524 )
(0.327675 0.000000 0.000000 0.038206 0.000000 0.498295 )
(0.047976 0.000000 0.000000 0.036358 0.000000 0.019924 )
(0.007690 0.000000 0.000000 0.008921 0.000000 0.031250 )
(0.056046 0.000000 0.000000 0.035193 0.000000 0.146821 )
(0.196732 0.000000 0.000000 0.036358 0.000000 0.072309 )
(0.279468 0.000000 0.000000 0.210715 0.000000 0.482544 )
(0.035737 0.000000 0.000000 0.170985 0.000000 0.033137 )
(0.007884 0.000000 0.000000 0.101166 0.000000 0.031250 )
(0.043879 0.000000 0.000000 0.135522 0.000000 0.159764 )
(0.154543 0.000000 0.000000 0.134465 0.000000 0.081973 )
(0.162806 0.000000 0.000000 0.202083 0.000000 0.000000 )
(0.033361 0.000000 0.000000 0.043062 0.000000 0.000000 )
(0.000000 0.000000 0.000000 0.011841 0.000000 0.000000 )
(0.029327 0.000000 0.000000 0.043414 0.000000 0.000000 )
(0.113276 0.000000 0.000000 0.052492 0.000000 0.000000 )
(0.053167 0.000000 0.000000 0.053167 0.000000 0.000000 )
(0.052781 0.000000 0.000000 0.051413 0.000000 0.000000 )
(0.000000 0.000000 0.000000 0.009945 0.000000 0.000000 )
(0.052781 0.000000 0.000000 0.050679 0.000000 0.000000 )
(0.029955 0.000000 0.000000 0.031837 0.000000 0.000000 )
(0.024088 0.000000 0.000000 0.024088 0.000000 0.000000 )
(0.024088 0.000000 0.000000 0.022863 0.000000 0.000000 )
(0.000527 0.000000 0.000000 0.004972 0.000000 0.000000 )
(0.024088 0.000000 0.000000 0.023783 0.000000 0.000000 )
(0.046616 0.000000 0.000000 0.044203 0.000000 0.000000 )
(0.053167 0.000000 0.000000 0.053167 0.000000 0.000000 )
(0.052798 0.000000 0.000000 0.051413 0.000000 0.000000 )
(0.000527 0.000000 0.000000 0.009945 0.000000 0.000000 )
(0.052798 0.000000 0.000000 0.050964 0.000000 0.000000 )
(0.053167 0.000000 0.000000 0.051413 0.000000 0.000000 )
(0.037036 0.000000 0.000000 0.200356 0.000000 0.000000 )
(0.038571 0.000000 0.000000 0.042904 0.000000 0.000000 )
(0.000000 0.000000 0.000000 0.011841 0.000000 0.000000 )
(0.038751 0.000000 0.000000 0.041755 0.000000 0.000000 )
(0.023680 0.000000 0.000000 0.023674 0.000000 0.000000 )
(0.107333 0.000000 0.000000 0.236809 0.000000 0.000000 )
(0.007851 0.000000 0.000000 0.045996 0.000000 0.000000 )
(0.000000 0.000000 0.000000 0.008202 0.000000 0.000000 )
(0.000000 0.000000 0.000000 0.041067 0.000000 0.000000 )
(0.087654 0.000000 0.000000 0.058313 0.000000 0.000000 )
(0.053167 0.000000 0.000000 0.053167 0.000000 0.000000 )
(0.052250 0.000000 0.000000 0.051907 0.000000 0.000000 )
(0.000000 0.000000 0.000000 0.010969 0.000000 0.000000 )
(0.052250 0.000000 0.000000 0.051587 0.000000 0.000000 )
(0.029955 0.000000 0.000000 0.032130 0.000000 0.000000 )
(0.024088 0.000000 0.000000 0.024088 0.000000 0.000000 )
(0.024088 0.000000 0.000000 0.022849 0.000000 0.000000 )
(0.000000 0.000000 0.000000 0.005484 0.000000 0.000000 )
(0.024088 0.000000 0.000000 0.024088 0.000000 0.000000 )
(0.046616 0.000000 0.000000 0.044403 0.000000 0.000000 )
(0.053167 0.000000 0.000000 0.053167 0.000000 0.000000 )
(0.053167 0.000000 0.000000 0.051907 0.000000 0.000000 )
(0.000000 0.000000 0.000000 0.010969 0.000000 0.000000 )
(0.053167 0.000000 0.000000 0.051907 0.000000 0.000000 )
(0.053167 0.000000 0.000000 0.051907 0.000000 0.000000 )
(0.040736 0.000000 0.000000 0.236809 0.000000 0.000000 )
(0.040736 0.000000 0.000000 0.045996 0.000000 0.000000 )
(0.000000 0.000000 0.000000 0.008202 0.000000 0.000000 )
(0.040736 0.000000 0.000000 0.038777 0.000000 0.000000 )
(0.024088 0.000000 0.000000 0.023934 0.000000 0.000000 )
(0.091512 0.000000 0.000000 0.236589 0.000000 0.000000 )
(0.000807 0.000000 0.000000 0.045928 0.000000 0.000000 )
(0.000000 0.000000 0.000000 0.008153 0.000000 0.000000 )
(0.000000 0.000000 0.000000 0.040997 0.000000 0.000000 )
(0.086265 0.000000 0.000000 0.061692 0.000000 0.000000 )
(0.053167 0.000000 0.000000 0.053167 0.000000 0.000000 )
(0.051815 0.000000 0.000000 0.051911 0.000000 0.000000 )
(0.000000 0.000000 0.000000 0.010928 0.000000 0.000000 )
(0.051815 0.000000 0.000000 0.051591 0.000000 0.000000 )
(0.029955 0.000000 0.000000 0.032364 0.000000 0.000000 )
(0.024088 0.000000 0.000000 0.024088 0.000000 0.000000 )
(0.024088 0.000000 0.000000 0.022861 0.000000 0.000000 )
(0.000132 0.000000 0.000000 0.005464 0.000000 0.000000 )
(0.024088 0.000000 0.000000 0.024088 0.000000 0.000000 )
(0.046616 0.000000 0.000000 0.044734 0.000000 0.000000 )
(0.053167 0.000000 0.000000 0.053167 0.000000 0.000000 )
(0.053167 0.000000 0.000000 0.051911 0.000000 0.000000 )
(0.000132 0.000000 0.000000 0.010928 0.000000 0.000000 )
(0.053167 0.000000 0.000000 0.051911 0.000000 0.000000 )
(0.053167 0.000000 0.000000 0.052277 0.000000 0.000000 )
(0.040736 0.000000 0.000000 0.236589 0.000000 0.000000 )
(0.040658 0.000000 0.000000 0.045928 0.000000 0.000000 )
(0.000000 0.000000 0.000000 0.008153 0.000000 0.000000 )
(0.040658 0.000000 0.000000 0.038725 0.000000 0.000000 )
(0.024088 0.000000 0.000000 0.023902 0.000000 0.000000 )
(0.113065 0.000000 0.000000 0.301405 0.000000 0.372876 )
(0.000000 0.000000 0.000000 0.044968 0.000000 0.088190 )
(0.002215 0.000000 0.000000 0.020770 0.000000 0.098383 )
(0.010876 0.000000 0.000000 0.044710 0.000000 0.112129 )
(0.094424 0.000000 0.000000 0.060197 0.000000 0.109230 )
(0.097926 0.000000 0.000000 0.050995 0.000000 0.235326 )
(0.054869 0.000000 0.000000 0.048195 0.000000 0.034037 )
(0.001922 0.000000 0.000000 0.007286 0.000000 0.031250 )
(0.056952 0.000000 0.000000 0.047178 0.000000 0.068339 )
(0.039973 0.000000 0.000000 0.029973 0.000000 0.040767 )
(0.064338 0.000000 0.000000 0.022736 0.000000 0.315534 )
(0.026155 0.000000 0.000000 0.021933 0.000000 0.043829 )
(0.004333 0.000000 0.000000 0.003643 0.000000 0.031250 )
(0.027887 0.000000 0.000000 0.022308 0.000000 0.088354 )
(0.057883 0.000000 0.000000 0.042593 0.000000 0.038059 )
(0.097926 0.000000 0.000000 0.050995 0.000000 0.235326 )
(0.055498 0.000000 0.000000 0.048195 0.000000 0.034037 )
(0.004312 0.000000 0.000000 0.007286 0.000000 0.031250 )
(0.056952 0.000000 0.000000 0.047369 0.000000 0.073704 )
(0.064853 0.000000 0.000000 0.048776 0.000000 0.034037 )
(0.089575 0.000000 0.000000 0.281303 0.000000 0.353229 )
(0.043512 0.000000 0.000000 0.044968 0.000000 0.043869 )
(0.001921 0.000000 0.000000 0.011987 0.000000 0.031250 )
(0.046270 0.000000 0.000000 0.044710 0.000000 0.085438 )
(0.034367 0.000000 0.000000 0.023368 0.000000 0.045212 )
(0.121455 0.000000 0.000000 0.121674 0.000000 0.113191 )
(0.002627 0.000000 0.000000 0.112693 0.000000 0.097186 )
(0.003823 0.000000 0.000000 0.092235 0.000000 0.079517 )
(0.004300 0.000000 0.000000 0.092235 0.000000 0.079517 )
(0.095955 0.000000 0.000000 0.121539 0.000000 0.151749 )
(0.112516 0.000000 0.000000 0.002714 0.000000 0.084442 )