/*--------------------------------*- C++ -*----------------------------------*\
| =========                 |                                                 |
| \\      /  F ield         | OpenFOAM: The Open Source CFD Toolbox           |
|  \\    /   O peration     | Version:  dev                                   |
|   \\  /    A nd           | Web:      www.OpenFOAM.com                      |
|    \\/     M anipulation  |                                                 |
\*---------------------------------------------------------------------------*/
FoamFile
{
    version     2.0;
    format      ascii;
    class       volSymmTensorField;
    location    "0";
    object      nsv;
}
// * * * * * * * * * * * * * * * * * * * * * * * * * * * * * * * * * * * * * //

dimensions	[0 0 0 0 0 0 0];

internalField   nonuniform List<symmTensor>
8025
(
(0.634791 0.000000 0.000000 0.634791 0.000000 0.030000 )
(0.134791 0.000000 0.000000 -0.115209 0.000000 -0.720000 )
(0.192395 0.000000 0.000000 -0.057605 0.000000 -0.360000 )
(0.732081 0.000000 0.000000 -0.230419 0.000000 0.830000 )
(0.827186 0.000000 0.000000 0.014686 0.000000 0.837500 )
(-0.115209 0.000000 0.000000 0.134791 0.000000 -0.720000 )
(-0.000000 0.000000 0.000000 -0.000000 0.000000 0.000000 )
(-0.057605 0.000000 0.000000 -0.057605 0.000000 -0.360000 )
(0.244581 0.000000 0.000000 -0.105419 0.000000 0.712500 )
(0.327186 0.000000 0.000000 0.202186 0.000000 0.540000 )
(-0.057605 0.000000 0.000000 0.192395 0.000000 -0.360000 )
(-0.057605 0.000000 0.000000 -0.057605 0.000000 -0.360000 )
(0.000000 0.000000 0.000000 -0.000000 0.000000 0.000000 )
(0.475000 0.000000 0.000000 0.250000 0.000000 -0.007500 )
(0.500000 0.000000 0.000000 0.500000 0.000000 -0.000000 )
(-0.230419 0.000000 0.000000 0.769581 0.000000 0.830000 )
(-0.105419 0.000000 0.000000 0.269581 0.000000 0.712500 )
(0.250000 0.000000 0.000000 0.500000 0.000000 -0.007500 )
(0.407081 0.000000 0.000000 0.394581 0.000000 0.970000 )
(0.827186 0.000000 0.000000 0.202186 0.000000 0.540000 )
(0.014686 0.000000 0.000000 0.827186 0.000000 0.837500 )
(0.202186 0.000000 0.000000 0.327186 0.000000 0.540000 )
(0.500000 0.000000 0.000000 0.500000 0.000000 -0.000000 )
(0.202186 0.000000 0.000000 0.827186 0.000000 0.540000 )
(0.500000 0.000000 0.000000 0.500000 0.000000 0.125000 )
(-0.000192 0.000000 0.000000 -0.030000 0.000000 0.114535 )
(-0.000173 0.000000 0.000000 -0.022500 0.000000 -0.121919 )
(-0.000173 0.000000 0.000000 -0.022500 0.000000 -0.121919 )
(-0.000230 0.000000 0.000000 -0.030000 0.000000 2.087442 )
(-0.000115 0.000000 0.000000 -0.015000 0.000000 1.918721 )
(0.000000 0.000000 0.000000 0.000000 0.000000 0.000000 )
(0.000000 0.000000 0.000000 0.000000 0.000000 0.000000 )
(0.000000 0.000000 0.000000 0.000000 0.000000 0.000000 )
(0.000000 0.000000 0.000000 0.000000 0.000000 2.000000 )
(0.000000 0.000000 0.000000 0.000000 0.000000 1.500000 )
(0.000000 0.000000 0.000000 0.000000 0.000000 0.000000 )
(0.000000 0.000000 0.000000 0.000000 0.000000 0.000000 )
(0.000000 0.000000 0.000000 0.000000 0.000000 0.000000 )
(0.000000 0.000000 0.000000 0.000000 0.000000 0.000000 )
(0.000000 0.000000 0.000000 0.000000 0.000000 0.000000 )
(0.000000 0.000000 0.000000 0.000000 0.000000 2.250000 )
(0.000000 0.000000 0.000000 0.000000 0.000000 2.000000 )
(0.000000 0.000000 0.000000 0.000000 0.000000 0.000000 )
(0.000000 0.000000 0.000000 0.000000 0.000000 2.250000 )
(0.000000 0.000000 0.000000 0.000000 0.000000 1.500000 )
(-0.000230 0.000000 0.000000 -0.000000 0.000000 1.837442 )
(-0.000173 0.000000 0.000000 -0.000000 0.000000 1.378081 )
(-0.000173 0.000000 0.000000 -0.000000 0.000000 -0.121919 )
(-0.000230 0.000000 0.000000 -0.000000 0.000000 1.337441 )
(-0.000115 0.000000 0.000000 -0.000000 0.000000 0.168721 )
(0.000000 0.000000 0.000000 0.000000 0.000000 -1.416667 )
(0.000000 0.000000 0.000000 0.000000 0.000000 -1.500000 )
(0.000000 0.000000 0.000000 0.000000 0.000000 -1.500000 )
(0.000000 0.000000 0.000000 0.000000 0.000000 0.250000 )
(0.000000 0.000000 0.000000 0.000000 0.000000 1.000000 )
(0.000000 0.000000 0.000000 0.000000 0.000000 0.000000 )
(0.000000 0.000000 0.000000 0.000000 0.000000 0.000000 )
(0.000000 0.000000 0.000000 0.000000 0.000000 0.000000 )
(0.000000 0.000000 0.000000 0.000000 0.000000 2.000000 )
(0.000000 0.000000 0.000000 0.000000 0.000000 1.500000 )
(0.000000 0.000000 0.000000 0.000000 0.000000 0.000000 )
(0.000000 0.000000 0.000000 0.000000 0.000000 0.000000 )
(0.000000 0.000000 0.000000 0.000000 0.000000 0.000000 )
(0.000000 0.000000 0.000000 0.000000 0.000000 0.000000 )
(0.000000 0.000000 0.000000 0.000000 0.000000 0.000000 )
(0.000000 0.000000 0.000000 0.000000 0.000000 2.250000 )
(0.000000 0.000000 0.000000 0.000000 0.000000 2.000000 )
(0.000000 0.000000 0.000000 0.000000 0.000000 0.000000 )
(0.000000 0.000000 0.000000 0.000000 0.000000 2.250000 )
(0.000000 0.000000 0.000000 0.000000 0.000000 1.500000 )
(0.000000 0.000000 0.000000 0.000000 0.000000 0.000000 )
(0.000000 0.000000 0.000000 0.000000 0.000000 0.000000 )
(0.000000 0.000000 0.000000 0.000000 0.000000 -1.500000 )
(0.000000 0.000000 0.000000 0.000000 0.000000 -0.500000 )
(0.000000 0.000000 0.000000 0.000000 0.000000 -0.750000 )
(-0.000115 0.000000 0.000000 -0.020000 0.000000 -1.997945 )
(-0.000115 0.000000 0.000000 -0.015000 0.000000 -2.081278 )
(-0.000115 0.000000 0.000000 -0.015000 0.000000 -2.081278 )
(-0.000154 0.000000 0.000000 -0.020000 0.000000 -0.525038 )
(-0.000077 0.000000 0.000000 -0.010000 0.000000 0.612481 )
(0.000000 0.000000 0.000000 0.000000 0.000000 0.000000 )
(0.000000 0.000000 0.000000 0.000000 0.000000 0.000000 )
(0.000000 0.000000 0.000000 0.000000 0.000000 0.000000 )
(0.000000 0.000000 0.000000 0.000000 0.000000 2.000000 )
(0.000000 0.000000 0.000000 0.000000 0.000000 1.500000 )
(0.000000 0.000000 0.000000 0.000000 0.000000 0.000000 )
(0.000000 0.000000 0.000000 0.000000 0.000000 0.000000 )
(0.000000 0.000000 0.000000 0.000000 0.000000 0.000000 )
(0.000000 0.000000 0.000000 0.000000 0.000000 0.000000 )
(0.000000 0.000000 0.000000 0.000000 0.000000 0.000000 )
(0.000000 0.000000 0.000000 0.000000 0.000000 2.250000 )
(0.000000 0.000000 0.000000 0.000000 0.000000 2.000000 )
(0.000000 0.000000 0.000000 0.000000 0.000000 0.000000 )
(0.000000 0.000000 0.000000 0.000000 0.000000 2.250000 )
(0.000000 0.000000 0.000000 0.000000 0.000000 1.500000 )
(-0.000154 0.000000 0.000000 -0.000000 0.000000 -0.775037 )
(-0.000115 0.000000 0.000000 -0.000000 0.000000 -0.581278 )
(-0.000115 0.000000 0.000000 -0.000000 0.000000 -2.081278 )
(-0.000154 0.000000 0.000000 -0.000000 0.000000 -1.275038 )
(-0.000077 0.000000 0.000000 -0.000000 0.000000 -1.137519 )
(0.250883 0.000000 0.000000 0.270001 0.000000 -2.428759 )
(0.000461 0.000000 0.000000 0.015000 0.000000 -2.518138 )
(0.000461 0.000000 0.000000 0.015000 0.000000 -2.518138 )
(0.359944 0.000000 0.000000 -0.250210 0.000000 -1.175018 )
(0.413670 0.000000 0.000000 -0.019306 0.000000 0.276241 )
(-0.000000 0.000000 0.000000 -0.000000 0.000000 -0.000000 )
(0.000000 0.000000 0.000000 0.000000 0.000000 0.000000 )
(0.000000 0.000000 0.000000 0.000000 0.000000 0.000000 )
(0.122291 0.000000 0.000000 -0.177709 0.000000 1.966250 )
(0.163593 0.000000 0.000000 0.110694 0.000000 1.477500 )
(0.000000 0.000000 0.000000 -0.000000 0.000000 0.000000 )
(0.000000 0.000000 0.000000 0.000000 0.000000 -0.000000 )
(-0.000000 0.000000 0.000000 -0.000000 0.000000 -0.000000 )
(0.237500 0.000000 0.000000 -0.000000 0.000000 -0.003750 )
(0.250000 0.000000 0.000000 0.250000 0.000000 -0.000000 )
(-0.240209 0.000000 0.000000 0.384791 0.000000 2.212500 )
(-0.177709 0.000000 0.000000 0.134791 0.000000 1.966250 )
(-0.000000 0.000000 0.000000 0.250000 0.000000 -0.003750 )
(0.197291 0.000000 0.000000 0.197291 0.000000 2.220000 )
(0.413593 0.000000 0.000000 0.110694 0.000000 1.477500 )
(-0.014383 0.000000 0.000000 0.413593 0.000000 -1.417518 )
(0.110636 0.000000 0.000000 0.163593 0.000000 -1.063139 )
(0.249942 0.000000 0.000000 0.250000 0.000000 -2.540639 )
(0.110617 0.000000 0.000000 0.413593 0.000000 -1.910018 )
(0.249962 0.000000 0.000000 0.250000 0.000000 -1.443759 )
(1.077186 0.000000 0.000000 0.014686 0.000000 0.837500 )
(0.769581 0.000000 0.000000 -0.230419 0.000000 0.720000 )
(0.884791 0.000000 0.000000 -0.115209 0.000000 0.360000 )
(0.769581 0.000000 0.000000 -0.230419 0.000000 0.720000 )
(0.827186 0.000000 0.000000 0.014686 0.000000 0.837500 )
(0.202186 0.000000 0.000000 0.202186 0.000000 0.540000 )
(0.269581 0.000000 0.000000 -0.230419 0.000000 0.720000 )
(0.384791 0.000000 0.000000 -0.115209 0.000000 0.360000 )
(0.269581 0.000000 0.000000 -0.230419 0.000000 0.720000 )
(0.327186 0.000000 0.000000 0.202186 0.000000 0.540000 )
(0.375000 0.000000 0.000000 0.500000 0.000000 -0.000000 )
(0.500000 0.000000 0.000000 0.000000 0.000000 0.000000 )
(0.500000 0.000000 0.000000 0.000000 0.000000 0.000000 )
(0.500000 0.000000 0.000000 0.000000 0.000000 0.000000 )
(0.500000 0.000000 0.000000 0.500000 0.000000 -0.000000 )
(0.577186 0.000000 0.000000 0.202186 0.000000 0.540000 )
(0.769581 0.000000 0.000000 -0.230419 0.000000 0.720000 )
(0.884791 0.000000 0.000000 -0.115209 0.000000 0.360000 )
(0.769581 0.000000 0.000000 -0.230419 0.000000 0.720000 )
(0.827186 0.000000 0.000000 0.202186 0.000000 0.540000 )
(0.272081 0.000000 0.000000 0.144581 0.000000 0.837500 )
(0.357186 0.000000 0.000000 -0.172814 0.000000 0.485027 )
(0.297186 0.000000 0.000000 -0.172814 0.000000 0.594973 )
(0.269581 0.000000 0.000000 -0.230419 0.000000 0.720000 )
(0.384791 0.000000 0.000000 0.259791 0.000000 0.477500 )
(-0.000230 0.000000 0.000000 -0.030000 0.000000 1.837441 )
(-0.000173 0.000000 0.000000 -0.022500 0.000000 1.878081 )
(-0.000173 0.000000 0.000000 -0.022500 0.000000 0.878081 )
(-0.000230 0.000000 0.000000 -0.030000 0.000000 1.837442 )
(-0.000115 0.000000 0.000000 -0.015000 0.000000 1.918721 )
(0.000000 0.000000 0.000000 0.000000 0.000000 1.500000 )
(0.000000 0.000000 0.000000 0.000000 0.000000 2.000000 )
(0.000000 0.000000 0.000000 0.000000 0.000000 1.000000 )
(0.000000 0.000000 0.000000 0.000000 0.000000 2.000000 )
(0.000000 0.000000 0.000000 0.000000 0.000000 1.500000 )
(0.000000 0.000000 0.000000 0.000000 0.000000 0.000000 )
(0.000000 0.000000 0.000000 0.000000 0.000000 0.000000 )
(0.000000 0.000000 0.000000 0.000000 0.000000 0.000000 )
(0.000000 0.000000 0.000000 0.000000 0.000000 0.000000 )
(0.000000 0.000000 0.000000 0.000000 0.000000 0.000000 )
(0.000000 0.000000 0.000000 0.000000 0.000000 1.500000 )
(0.000000 0.000000 0.000000 0.000000 0.000000 2.000000 )
(0.000000 0.000000 0.000000 0.000000 0.000000 1.000000 )
(0.000000 0.000000 0.000000 0.000000 0.000000 2.000000 )
(0.000000 0.000000 0.000000 0.000000 0.000000 1.500000 )
(-0.000230 0.000000 0.000000 -0.000000 0.000000 2.087442 )
(-0.000173 0.000000 0.000000 -0.000000 0.000000 1.225378 )
(-0.000173 0.000000 0.000000 -0.000000 0.000000 1.530784 )
(-0.000230 0.000000 0.000000 -0.000000 0.000000 1.837442 )
(-0.000115 0.000000 0.000000 -0.000000 0.000000 1.168721 )
(0.000000 0.000000 0.000000 0.000000 0.000000 -0.000000 )
(0.000000 0.000000 0.000000 0.000000 0.000000 0.500000 )
(0.000000 0.000000 0.000000 0.000000 0.000000 -0.500000 )
(0.000000 0.000000 0.000000 0.000000 0.000000 0.000000 )
(0.000000 0.000000 0.000000 0.000000 0.000000 1.000000 )
(0.000000 0.000000 0.000000 0.000000 0.000000 1.500000 )
(0.000000 0.000000 0.000000 0.000000 0.000000 2.000000 )
(0.000000 0.000000 0.000000 0.000000 0.000000 1.000000 )
(0.000000 0.000000 0.000000 0.000000 0.000000 2.000000 )
(0.000000 0.000000 0.000000 0.000000 0.000000 1.500000 )
(0.000000 0.000000 0.000000 0.000000 0.000000 0.000000 )
(0.000000 0.000000 0.000000 0.000000 0.000000 0.000000 )
(0.000000 0.000000 0.000000 0.000000 0.000000 0.000000 )
(0.000000 0.000000 0.000000 0.000000 0.000000 0.000000 )
(0.000000 0.000000 0.000000 0.000000 0.000000 0.000000 )
(0.000000 0.000000 0.000000 0.000000 0.000000 1.500000 )
(0.000000 0.000000 0.000000 0.000000 0.000000 2.000000 )
(0.000000 0.000000 0.000000 0.000000 0.000000 1.000000 )
(0.000000 0.000000 0.000000 0.000000 0.000000 2.000000 )
(0.000000 0.000000 0.000000 0.000000 0.000000 1.500000 )
(0.000000 0.000000 0.000000 0.000000 0.000000 0.250000 )
(0.000000 0.000000 0.000000 0.000000 0.000000 -0.152703 )
(0.000000 0.000000 0.000000 0.000000 0.000000 0.152703 )
(0.000000 0.000000 0.000000 0.000000 0.000000 0.000000 )
(0.000000 0.000000 0.000000 0.000000 0.000000 0.250000 )
(-0.000154 0.000000 0.000000 -0.020000 0.000000 -0.775038 )
(-0.000115 0.000000 0.000000 -0.015000 0.000000 -0.081278 )
(-0.000115 0.000000 0.000000 -0.015000 0.000000 -1.081278 )
(-0.000154 0.000000 0.000000 -0.020000 0.000000 -0.775038 )
(-0.000077 0.000000 0.000000 -0.010000 0.000000 0.612481 )
(0.000000 0.000000 0.000000 0.000000 0.000000 1.500000 )
(0.000000 0.000000 0.000000 0.000000 0.000000 2.000000 )
(0.000000 0.000000 0.000000 0.000000 0.000000 1.000000 )
(0.000000 0.000000 0.000000 0.000000 0.000000 2.000000 )
(0.000000 0.000000 0.000000 0.000000 0.000000 1.500000 )
(0.000000 0.000000 0.000000 0.000000 0.000000 0.000000 )
(0.000000 0.000000 0.000000 0.000000 0.000000 0.000000 )
(0.000000 0.000000 0.000000 0.000000 0.000000 0.000000 )
(0.000000 0.000000 0.000000 0.000000 0.000000 0.000000 )
(0.000000 0.000000 0.000000 0.000000 0.000000 0.000000 )
(0.000000 0.000000 0.000000 0.000000 0.000000 1.500000 )
(0.000000 0.000000 0.000000 0.000000 0.000000 2.000000 )
(0.000000 0.000000 0.000000 0.000000 0.000000 1.000000 )
(0.000000 0.000000 0.000000 0.000000 0.000000 2.000000 )
(0.000000 0.000000 0.000000 0.000000 0.000000 1.500000 )
(-0.000154 0.000000 0.000000 -0.000000 0.000000 -0.525038 )
(-0.000115 0.000000 0.000000 -0.000000 0.000000 -0.733981 )
(-0.000115 0.000000 0.000000 -0.000000 0.000000 -0.428575 )
(-0.000154 0.000000 0.000000 -0.000000 0.000000 -0.775038 )
(-0.000077 0.000000 0.000000 -0.000000 0.000000 -0.137519 )
(0.476206 0.000000 0.000000 -0.028507 0.000000 -1.402518 )
(0.384906 0.000000 0.000000 -0.122710 0.000000 -0.570639 )
(0.442510 0.000000 0.000000 -0.065105 0.000000 -1.555639 )
(0.384944 0.000000 0.000000 -0.125210 0.000000 -1.417518 )
(0.413670 0.000000 0.000000 -0.019306 0.000000 0.276241 )
(0.100477 0.000000 0.000000 0.091492 0.000000 1.477500 )
(0.134791 0.000000 0.000000 -0.115209 0.000000 1.970000 )
(0.192395 0.000000 0.000000 -0.057605 0.000000 0.985000 )
(0.134791 0.000000 0.000000 -0.115209 0.000000 1.970000 )
(0.163593 0.000000 0.000000 0.110694 0.000000 1.477500 )
(0.187500 0.000000 0.000000 0.250000 0.000000 -0.000000 )
(0.250000 0.000000 0.000000 0.000000 0.000000 0.000000 )
(0.250000 0.000000 0.000000 0.000000 0.000000 0.000000 )
(0.250000 0.000000 0.000000 0.000000 0.000000 0.000000 )
(0.250000 0.000000 0.000000 0.250000 0.000000 -0.000000 )
(0.287977 0.000000 0.000000 0.091492 0.000000 1.477500 )
(0.384791 0.000000 0.000000 -0.115209 0.000000 1.970000 )
(0.442395 0.000000 0.000000 -0.057605 0.000000 0.985000 )
(0.384791 0.000000 0.000000 -0.115209 0.000000 1.970000 )
(0.413593 0.000000 0.000000 0.110694 0.000000 1.477500 )
(0.467329 0.000000 0.000000 0.072291 0.000000 -1.180018 )
(0.178535 0.000000 0.000000 -0.086407 0.000000 -1.215841 )
(0.148535 0.000000 0.000000 -0.086407 0.000000 -0.910436 )
(0.134714 0.000000 0.000000 -0.115210 0.000000 -1.417518 )
(0.192357 0.000000 0.000000 0.129895 0.000000 -0.471259 )
(1.077186 0.000000 0.000000 0.014686 0.000000 0.837500 )
(0.769581 0.000000 0.000000 -0.230419 0.000000 0.720000 )
(0.884791 0.000000 0.000000 -0.115209 0.000000 0.360000 )
(0.769581 0.000000 0.000000 -0.230419 0.000000 0.720000 )
(0.894581 0.000000 0.000000 0.644581 0.000000 1.500000 )
(0.202186 0.000000 0.000000 0.202186 0.000000 0.540000 )
(0.269581 0.000000 0.000000 -0.230419 0.000000 0.720000 )
(0.384791 0.000000 0.000000 -0.115209 0.000000 0.360000 )
(0.172500 0.000000 0.000000 0.220000 0.000000 0.022500 )
(-0.230419 0.000000 0.000000 0.769581 0.000000 0.720000 )
(0.375000 0.000000 0.000000 0.500000 0.000000 -0.000000 )
(0.500000 0.000000 0.000000 0.000000 0.000000 0.000000 )
(0.500000 0.000000 0.000000 0.000000 0.000000 0.000000 )
(-0.067709 0.000000 0.000000 0.884791 0.000000 0.367500 )
(-0.115209 0.000000 0.000000 0.884791 0.000000 0.360000 )
(0.577186 0.000000 0.000000 0.202186 0.000000 0.540000 )
(0.489581 0.000000 0.000000 0.192081 0.000000 0.742500 )
(0.000000 0.000000 0.000000 0.297500 0.000000 0.007500 )
(-0.230419 0.000000 0.000000 0.769581 0.000000 0.720000 )
(-0.230419 0.000000 0.000000 0.769581 0.000000 0.720000 )
(0.447291 0.000000 0.000000 0.384791 0.000000 0.485000 )
(0.202186 0.000000 0.000000 0.327186 0.000000 0.540000 )
(0.500000 0.000000 0.000000 0.500000 0.000000 -0.000000 )
(0.202186 0.000000 0.000000 0.827186 0.000000 0.540000 )
(0.202186 0.000000 0.000000 0.827186 0.000000 0.837500 )
(-0.000230 0.000000 0.000000 -0.030000 0.000000 1.837441 )
(-0.000173 0.000000 0.000000 -0.022500 0.000000 1.878081 )
(-0.000173 0.000000 0.000000 -0.022500 0.000000 0.878081 )
(-0.000230 0.000000 0.000000 -0.030000 0.000000 1.837442 )
(-0.000115 0.000000 0.000000 -0.015000 0.000000 2.918721 )
(0.000000 0.000000 0.000000 0.000000 0.000000 1.500000 )
(0.000000 0.000000 0.000000 0.000000 0.000000 2.000000 )
(0.000000 0.000000 0.000000 0.000000 0.000000 1.000000 )
(0.000000 0.000000 0.000000 0.000000 0.000000 0.000000 )
(0.000000 0.000000 0.000000 0.000000 0.000000 2.000000 )
(0.000000 0.000000 0.000000 0.000000 0.000000 0.000000 )
(0.000000 0.000000 0.000000 0.000000 0.000000 0.000000 )
(0.000000 0.000000 0.000000 0.000000 0.000000 0.000000 )
(0.000000 0.000000 0.000000 0.000000 0.000000 1.000000 )
(0.000000 0.000000 0.000000 0.000000 0.000000 1.000000 )
(0.000000 0.000000 0.000000 0.000000 0.000000 1.500000 )
(0.000000 0.000000 0.000000 0.000000 0.000000 2.000000 )
(0.000000 0.000000 0.000000 0.000000 0.000000 0.000000 )
(0.000000 0.000000 0.000000 0.000000 0.000000 2.000000 )
(0.000000 0.000000 0.000000 0.000000 0.000000 2.000000 )
(-0.000230 0.000000 0.000000 -0.000000 0.000000 1.087442 )
(-0.000173 0.000000 0.000000 -0.000000 0.000000 1.378081 )
(-0.000173 0.000000 0.000000 -0.000000 0.000000 -0.121919 )
(-0.000230 0.000000 0.000000 -0.000000 0.000000 1.337442 )
(-0.000115 0.000000 0.000000 -0.000000 0.000000 1.918721 )
(0.000000 0.000000 0.000000 0.000000 0.000000 -0.000000 )
(0.000000 0.000000 0.000000 0.000000 0.000000 0.500000 )
(0.000000 0.000000 0.000000 0.000000 0.000000 -0.500000 )
(0.000000 0.000000 0.000000 0.000000 0.000000 0.000000 )
(0.000000 0.000000 0.000000 0.000000 0.000000 2.000000 )
(0.000000 0.000000 0.000000 0.000000 0.000000 1.500000 )
(0.000000 0.000000 0.000000 0.000000 0.000000 2.000000 )
(0.000000 0.000000 0.000000 0.000000 0.000000 1.000000 )
(0.000000 0.000000 0.000000 0.000000 0.000000 0.000000 )
(0.000000 0.000000 0.000000 0.000000 0.000000 2.000000 )
(0.000000 0.000000 0.000000 0.000000 0.000000 0.000000 )
(0.000000 0.000000 0.000000 0.000000 0.000000 0.000000 )
(0.000000 0.000000 0.000000 0.000000 0.000000 0.000000 )
(0.000000 0.000000 0.000000 0.000000 0.000000 1.000000 )
(0.000000 0.000000 0.000000 0.000000 0.000000 1.000000 )
(0.000000 0.000000 0.000000 0.000000 0.000000 1.500000 )
(0.000000 0.000000 0.000000 0.000000 0.000000 2.000000 )
(0.000000 0.000000 0.000000 0.000000 0.000000 0.000000 )
(0.000000 0.000000 0.000000 0.000000 0.000000 2.000000 )
(0.000000 0.000000 0.000000 0.000000 0.000000 2.000000 )
(0.000000 0.000000 0.000000 0.000000 0.000000 -0.750000 )
(0.000000 0.000000 0.000000 0.000000 0.000000 -0.000000 )
(0.000000 0.000000 0.000000 0.000000 0.000000 -1.500000 )
(0.000000 0.000000 0.000000 0.000000 0.000000 -0.500000 )
(0.000000 0.000000 0.000000 0.000000 0.000000 1.000000 )
(-0.000154 0.000000 0.000000 -0.020000 0.000000 -0.775038 )
(-0.000115 0.000000 0.000000 -0.015000 0.000000 -0.081278 )
(-0.000115 0.000000 0.000000 -0.015000 0.000000 -1.081278 )
(-0.000154 0.000000 0.000000 -0.020000 0.000000 -0.775038 )
(-0.000077 0.000000 0.000000 -0.010000 0.000000 1.612481 )
(0.000000 0.000000 0.000000 0.000000 0.000000 1.500000 )
(0.000000 0.000000 0.000000 0.000000 0.000000 2.000000 )
(0.000000 0.000000 0.000000 0.000000 0.000000 1.000000 )
(0.000000 0.000000 0.000000 0.000000 0.000000 0.000000 )
(0.000000 0.000000 0.000000 0.000000 0.000000 2.000000 )
(0.000000 0.000000 0.000000 0.000000 0.000000 0.000000 )
(0.000000 0.000000 0.000000 0.000000 0.000000 0.000000 )
(0.000000 0.000000 0.000000 0.000000 0.000000 0.000000 )
(0.000000 0.000000 0.000000 0.000000 0.000000 1.000000 )
(0.000000 0.000000 0.000000 0.000000 0.000000 1.000000 )
(0.000000 0.000000 0.000000 0.000000 0.000000 1.500000 )
(0.000000 0.000000 0.000000 0.000000 0.000000 2.000000 )
(0.000000 0.000000 0.000000 0.000000 0.000000 0.000000 )
(0.000000 0.000000 0.000000 0.000000 0.000000 2.000000 )
(0.000000 0.000000 0.000000 0.000000 0.000000 2.000000 )
(-0.000154 0.000000 0.000000 -0.000000 0.000000 -1.525038 )
(-0.000115 0.000000 0.000000 -0.000000 0.000000 -0.581278 )
(-0.000115 0.000000 0.000000 -0.000000 0.000000 -2.081278 )
(-0.000154 0.000000 0.000000 -0.000000 0.000000 -1.275037 )
(-0.000077 0.000000 0.000000 -0.000000 0.000000 0.612482 )
(0.476206 0.000000 0.000000 -0.028507 0.000000 -1.402518 )
(0.384906 0.000000 0.000000 -0.122710 0.000000 -0.570639 )
(0.442510 0.000000 0.000000 -0.065105 0.000000 -1.555639 )
(0.384944 0.000000 0.000000 -0.125210 0.000000 -1.417518 )
(0.447367 0.000000 0.000000 0.254791 0.000000 1.291241 )
(0.100477 0.000000 0.000000 0.091492 0.000000 1.477500 )
(0.134791 0.000000 0.000000 -0.115209 0.000000 1.970000 )
(0.192395 0.000000 0.000000 -0.057605 0.000000 0.985000 )
(0.086250 0.000000 0.000000 0.110000 0.000000 0.011250 )
(-0.115209 0.000000 0.000000 0.384791 0.000000 1.970000 )
(0.187500 0.000000 0.000000 0.250000 0.000000 -0.000000 )
(0.250000 0.000000 0.000000 0.000000 0.000000 0.000000 )
(0.250000 0.000000 0.000000 0.000000 0.000000 0.000000 )
(-0.033855 0.000000 0.000000 0.442395 0.000000 0.988750 )
(-0.057605 0.000000 0.000000 0.442395 0.000000 0.985000 )
(0.287977 0.000000 0.000000 0.091492 0.000000 1.477500 )
(0.244791 0.000000 0.000000 0.096041 0.000000 1.981250 )
(0.000000 0.000000 0.000000 0.148750 0.000000 0.003750 )
(-0.115209 0.000000 0.000000 0.384791 0.000000 1.970000 )
(-0.115209 0.000000 0.000000 0.384791 0.000000 1.970000 )
(0.192434 0.000000 0.000000 0.192395 0.000000 -2.152518 )
(0.110636 0.000000 0.000000 0.163593 0.000000 -1.063139 )
(0.249942 0.000000 0.000000 0.250000 0.000000 -2.540639 )
(0.110617 0.000000 0.000000 0.413593 0.000000 -1.910018 )
(0.110655 0.000000 0.000000 0.413593 0.000000 0.276241 )
(0.014686 0.000000 0.000000 1.077186 0.000000 0.837500 )
(0.202186 0.000000 0.000000 0.202186 0.000000 0.540000 )
(0.500000 0.000000 0.000000 0.375000 0.000000 -0.000000 )
(0.202186 0.000000 0.000000 0.577186 0.000000 0.540000 )
(0.144581 0.000000 0.000000 0.272081 0.000000 0.837500 )
(-0.230419 0.000000 0.000000 0.769581 0.000000 0.720000 )
(-0.230419 0.000000 0.000000 0.269581 0.000000 0.720000 )
(0.000000 0.000000 0.000000 0.500000 0.000000 0.000000 )
(-0.230419 0.000000 0.000000 0.769581 0.000000 0.720000 )
(-0.172814 0.000000 0.000000 0.357186 0.000000 0.485027 )
(-0.115209 0.000000 0.000000 0.884791 0.000000 0.360000 )
(-0.115209 0.000000 0.000000 0.384791 0.000000 0.360000 )
(0.000000 0.000000 0.000000 0.500000 0.000000 0.000000 )
(-0.115209 0.000000 0.000000 0.884791 0.000000 0.360000 )
(-0.172814 0.000000 0.000000 0.297186 0.000000 0.594973 )
(-0.230419 0.000000 0.000000 0.769581 0.000000 0.720000 )
(-0.230419 0.000000 0.000000 0.269581 0.000000 0.720000 )
(0.000000 0.000000 0.000000 0.500000 0.000000 0.000000 )
(-0.230419 0.000000 0.000000 0.769581 0.000000 0.720000 )
(-0.230419 0.000000 0.000000 0.269581 0.000000 0.720000 )
(0.014686 0.000000 0.000000 0.827186 0.000000 0.837500 )
(0.202186 0.000000 0.000000 0.327186 0.000000 0.540000 )
(0.500000 0.000000 0.000000 0.500000 0.000000 -0.000000 )
(0.202186 0.000000 0.000000 0.827186 0.000000 0.540000 )
(0.259791 0.000000 0.000000 0.384791 0.000000 0.477500 )
(-0.000230 0.000000 0.000000 -0.030000 0.000000 1.837442 )
(-0.000173 0.000000 0.000000 -0.022500 0.000000 1.378082 )
(-0.000173 0.000000 0.000000 -0.022500 0.000000 -0.121918 )
(-0.000230 0.000000 0.000000 -0.030000 0.000000 1.337442 )
(-0.000115 0.000000 0.000000 -0.015000 0.000000 2.168721 )
(0.000000 0.000000 0.000000 0.000000 0.000000 2.000000 )
(0.000000 0.000000 0.000000 0.000000 0.000000 2.000000 )
(0.000000 0.000000 0.000000 0.000000 0.000000 0.000000 )
(0.000000 0.000000 0.000000 0.000000 0.000000 2.000000 )
(0.000000 0.000000 0.000000 0.000000 0.000000 1.347298 )
(0.000000 0.000000 0.000000 0.000000 0.000000 1.000000 )
(0.000000 0.000000 0.000000 0.000000 0.000000 1.000000 )
(0.000000 0.000000 0.000000 0.000000 0.000000 0.000000 )
(0.000000 0.000000 0.000000 0.000000 0.000000 1.000000 )
(0.000000 0.000000 0.000000 0.000000 0.000000 1.652702 )
(0.000000 0.000000 0.000000 0.000000 0.000000 2.000000 )
(0.000000 0.000000 0.000000 0.000000 0.000000 2.000000 )
(0.000000 0.000000 0.000000 0.000000 0.000000 0.000000 )
(0.000000 0.000000 0.000000 0.000000 0.000000 2.000000 )
(0.000000 0.000000 0.000000 0.000000 0.000000 2.000000 )
(-0.000230 0.000000 0.000000 -0.000000 0.000000 1.837443 )
(-0.000173 0.000000 0.000000 -0.000000 0.000000 1.378082 )
(-0.000173 0.000000 0.000000 -0.000000 0.000000 -0.121918 )
(-0.000230 0.000000 0.000000 -0.000000 0.000000 1.337442 )
(-0.000115 0.000000 0.000000 -0.000000 0.000000 1.168721 )
(0.000000 0.000000 0.000000 0.000000 0.000000 -0.000000 )
(0.000000 0.000000 0.000000 0.000000 0.000000 -0.000000 )
(0.000000 0.000000 0.000000 0.000000 0.000000 -1.500000 )
(0.000000 0.000000 0.000000 0.000000 0.000000 -0.500000 )
(0.000000 0.000000 0.000000 0.000000 0.000000 1.250000 )
(0.000000 0.000000 0.000000 0.000000 0.000000 2.000000 )
(0.000000 0.000000 0.000000 0.000000 0.000000 2.000000 )
(0.000000 0.000000 0.000000 0.000000 0.000000 0.000000 )
(0.000000 0.000000 0.000000 0.000000 0.000000 2.000000 )
(0.000000 0.000000 0.000000 0.000000 0.000000 1.347298 )
(0.000000 0.000000 0.000000 0.000000 0.000000 1.000000 )
(0.000000 0.000000 0.000000 0.000000 0.000000 1.000000 )
(0.000000 0.000000 0.000000 0.000000 0.000000 0.000000 )
(0.000000 0.000000 0.000000 0.000000 0.000000 1.000000 )
(0.000000 0.000000 0.000000 0.000000 0.000000 1.652702 )
(0.000000 0.000000 0.000000 0.000000 0.000000 2.000000 )
(0.000000 0.000000 0.000000 0.000000 0.000000 2.000000 )
(0.000000 0.000000 0.000000 0.000000 0.000000 0.000000 )
(0.000000 0.000000 0.000000 0.000000 0.000000 2.000000 )
(0.000000 0.000000 0.000000 0.000000 0.000000 2.000000 )
(0.000000 0.000000 0.000000 0.000000 0.000000 0.000000 )
(0.000000 0.000000 0.000000 0.000000 0.000000 0.000000 )
(0.000000 0.000000 0.000000 0.000000 0.000000 -1.500000 )
(0.000000 0.000000 0.000000 0.000000 0.000000 -0.500000 )
(0.000000 0.000000 0.000000 0.000000 0.000000 0.250000 )
(-0.000154 0.000000 0.000000 -0.020000 0.000000 -0.775037 )
(-0.000115 0.000000 0.000000 -0.015000 0.000000 -0.581278 )
(-0.000115 0.000000 0.000000 -0.015000 0.000000 -2.081278 )
(-0.000154 0.000000 0.000000 -0.020000 0.000000 -1.275037 )
(-0.000077 0.000000 0.000000 -0.010000 0.000000 0.862481 )
(0.000000 0.000000 0.000000 0.000000 0.000000 2.000000 )
(0.000000 0.000000 0.000000 0.000000 0.000000 2.000000 )
(0.000000 0.000000 0.000000 0.000000 0.000000 0.000000 )
(0.000000 0.000000 0.000000 0.000000 0.000000 2.000000 )
(0.000000 0.000000 0.000000 0.000000 0.000000 1.347298 )
(0.000000 0.000000 0.000000 0.000000 0.000000 1.000000 )
(0.000000 0.000000 0.000000 0.000000 0.000000 1.000000 )
(0.000000 0.000000 0.000000 0.000000 0.000000 0.000000 )
(0.000000 0.000000 0.000000 0.000000 0.000000 1.000000 )
(0.000000 0.000000 0.000000 0.000000 0.000000 1.652702 )
(0.000000 0.000000 0.000000 0.000000 0.000000 2.000000 )
(0.000000 0.000000 0.000000 0.000000 0.000000 2.000000 )
(0.000000 0.000000 0.000000 0.000000 0.000000 0.000000 )
(0.000000 0.000000 0.000000 0.000000 0.000000 2.000000 )
(0.000000 0.000000 0.000000 0.000000 0.000000 2.000000 )
(-0.000154 0.000000 0.000000 -0.000000 0.000000 -0.775037 )
(-0.000115 0.000000 0.000000 -0.000000 0.000000 -0.581278 )
(-0.000115 0.000000 0.000000 -0.000000 0.000000 -2.081278 )
(-0.000154 0.000000 0.000000 -0.000000 0.000000 -1.275037 )
(-0.000077 0.000000 0.000000 -0.000000 0.000000 -0.137519 )
(-0.033239 0.000000 0.000000 0.465477 0.000000 -1.417518 )
(0.091492 0.000000 0.000000 0.092977 0.000000 -1.063139 )
(0.249942 0.000000 0.000000 0.180000 0.000000 -2.540638 )
(0.091473 0.000000 0.000000 0.277977 0.000000 -1.910018 )
(0.072252 0.000000 0.000000 0.462290 0.000000 0.513741 )
(-0.115209 0.000000 0.000000 0.384791 0.000000 1.970000 )
(-0.115209 0.000000 0.000000 0.134791 0.000000 1.970000 )
(0.000000 0.000000 0.000000 0.250000 0.000000 0.000000 )
(-0.115209 0.000000 0.000000 0.384791 0.000000 1.970000 )
(-0.086407 0.000000 0.000000 0.178593 0.000000 1.324798 )
(-0.057605 0.000000 0.000000 0.442395 0.000000 0.985000 )
(-0.057605 0.000000 0.000000 0.192395 0.000000 0.985000 )
(0.000000 0.000000 0.000000 0.250000 0.000000 0.000000 )
(-0.057605 0.000000 0.000000 0.442395 0.000000 0.985000 )
(-0.086407 0.000000 0.000000 0.148593 0.000000 1.630202 )
(-0.115209 0.000000 0.000000 0.384791 0.000000 1.970000 )
(-0.115209 0.000000 0.000000 0.134791 0.000000 1.970000 )
(0.000000 0.000000 0.000000 0.250000 0.000000 0.000000 )
(-0.115209 0.000000 0.000000 0.384791 0.000000 1.970000 )
(-0.115209 0.000000 0.000000 0.134791 0.000000 1.970000 )
(-0.014383 0.000000 0.000000 0.413593 0.000000 -1.417518 )
(0.110636 0.000000 0.000000 0.163593 0.000000 -1.063138 )
(0.249942 0.000000 0.000000 0.250000 0.000000 -2.540638 )
(0.110617 0.000000 0.000000 0.413593 0.000000 -1.910018 )
(0.129857 0.000000 0.000000 0.192395 0.000000 -0.471259 )
(0.502500 0.000000 0.000000 0.502500 0.000000 0.110000 )
(0.500000 0.000000 0.000000 0.000000 0.000000 0.000000 )
(0.500000 0.000000 0.000000 0.000000 0.000000 0.000000 )
(0.500000 0.000000 0.000000 0.000000 0.000000 0.000000 )